 Entering Gaussian System, Link 0=g09
 Initial command:
 /opt/software/gaussian/g09.e01/l1.exe "/localscratch/rjackson.18103347.0/Gau-37006.inp" -scrdir="/localscratch/rjackson.18103347.0/"
 Entering Link 1 = /opt/software/gaussian/g09.e01/l1.exe PID=     37007.
  
 Copyright (c) 1988,1990,1992,1993,1995,1998,2003,2009,2015,
            Gaussian, Inc.  All Rights Reserved.
  
 This is part of the Gaussian(R) 09 program.  It is based on
 the Gaussian(R) 03 system (copyright 2003, Gaussian, Inc.),
 the Gaussian(R) 98 system (copyright 1998, Gaussian, Inc.),
 the Gaussian(R) 94 system (copyright 1995, Gaussian, Inc.),
 the Gaussian 92(TM) system (copyright 1992, Gaussian, Inc.),
 the Gaussian 90(TM) system (copyright 1990, Gaussian, Inc.),
 the Gaussian 88(TM) system (copyright 1988, Gaussian, Inc.),
 the Gaussian 86(TM) system (copyright 1986, Carnegie Mellon
 University), and the Gaussian 82(TM) system (copyright 1983,
 Carnegie Mellon University). Gaussian is a federally registered
 trademark of Gaussian, Inc.
  
 This software contains proprietary and confidential information,
 including trade secrets, belonging to Gaussian, Inc.
  
 This software is provided under written license and may be
 used, copied, transmitted, or stored only in accord with that
 written license.
  
 The following legend is applicable only to US Government
 contracts under FAR:
  
                    RESTRICTED RIGHTS LEGEND
  
 Use, reproduction and disclosure by the US Government is
 subject to restrictions as set forth in subparagraphs (a)
 and (c) of the Commercial Computer Software - Restricted
 Rights clause in FAR 52.227-19.
  
 Gaussian, Inc.
 340 Quinnipiac St., Bldg. 40, Wallingford CT 06492
  
  
 ---------------------------------------------------------------
 Warning -- This program may not be used in any manner that
 competes with the business of Gaussian, Inc. or will provide
 assistance to any competitor of Gaussian, Inc.  The licensee
 of this program is prohibited from giving any competitor of
 Gaussian, Inc. access to this program.  By using this program,
 the user acknowledges that Gaussian, Inc. is engaged in the
 business of creating and licensing software in the field of
 computational chemistry and represents and warrants to the
 licensee that it is not a competitor of Gaussian, Inc. and that
 it will not use this program in any manner prohibited above.
 ---------------------------------------------------------------
  

 Cite this work as:
 Gaussian 09, Revision E.01,
 M. J. Frisch, G. W. Trucks, H. B. Schlegel, G. E. Scuseria, 
 M. A. Robb, J. R. Cheeseman, G. Scalmani, V. Barone, B. Mennucci, 
 G. A. Petersson, H. Nakatsuji, M. Caricato, X. Li, H. P. Hratchian, 
 A. F. Izmaylov, J. Bloino, G. Zheng, J. L. Sonnenberg, M. Hada, 
 M. Ehara, K. Toyota, R. Fukuda, J. Hasegawa, M. Ishida, T. Nakajima, 
 Y. Honda, O. Kitao, H. Nakai, T. Vreven, J. A. Montgomery, Jr., 
 J. E. Peralta, F. Ogliaro, M. Bearpark, J. J. Heyd, E. Brothers, 
 K. N. Kudin, V. N. Staroverov, T. Keith, R. Kobayashi, J. Normand, 
 K. Raghavachari, A. Rendell, J. C. Burant, S. S. Iyengar, J. Tomasi, 
 M. Cossi, N. Rega, J. M. Millam, M. Klene, J. E. Knox, J. B. Cross, 
 V. Bakken, C. Adamo, J. Jaramillo, R. Gomperts, R. E. Stratmann, 
 O. Yazyev, A. J. Austin, R. Cammi, C. Pomelli, J. W. Ochterski, 
 R. L. Martin, K. Morokuma, V. G. Zakrzewski, G. A. Voth, 
 P. Salvador, J. J. Dannenberg, S. Dapprich, A. D. Daniels, 
 O. Farkas, J. B. Foresman, J. V. Ortiz, J. Cioslowski, 
 and D. J. Fox, Gaussian, Inc., Wallingford CT, 2013.
 
 ******************************************
 Gaussian 09:  EM64L-G09RevE.01 30-Nov-2015
                12-Mar-2019 
 ******************************************
 -----------------------------------------------------------------
 # mp2/cc-PVDZ opt(tight) integral(grid=superfine) scf(maxcyc=256)
 -----------------------------------------------------------------
 1/7=10,18=20,19=15,38=1/1,3;
 2/9=110,12=2,17=6,18=5,40=1/2;
 3/5=16,11=9,16=1,25=1,30=1,71=1,75=-7/1,2,3;
 4//1;
 5/5=2,7=256,38=5/2;
 8/6=4,10=1/1;
 9/15=2,16=-3/6;
 10/5=1/2;
 6/7=2,8=2,9=2,10=2/1;
 7/12=2/1,2,3,16;
 1/7=10,18=20,19=15/3(2);
 2/9=110/2;
 99//99;
 2/9=110/2;
 3/5=16,11=9,16=1,25=1,30=1,71=1,75=-7/1,2,3;
 4/5=5,16=3,69=1/1;
 5/5=2,7=256,38=5/2;
 8/6=4,10=1/1;
 9/15=2,16=-3/6;
 10/5=1/2;
 7/12=2/1,2,3,16;
 1/7=10,18=20,19=15/3(-8);
 2/9=110/2;
 6/7=2,8=2,9=2,10=2/1;
 99//99;
 -------------------------
 OH-chloromethane_reactant
 -------------------------
 Symbolic Z-matrix:
 Charge = -1 Multiplicity = 1
 Cl                   -1.73464  -1.32856  -0.03666 
 C                     1.18964   0.51335   0.06061 
 H                     0.70085   0.32895   1.0276 
 H                     0.39537   0.29038  -0.6578 
 H                     1.59642   1.54124  -0.01542 
 O                     2.33921  -0.32686  -0.10851 
 H                     2.03121  -1.21032   0.14397 
 
 Add virtual bond connecting atoms H4         and Cl1        Dist= 5.19D+00.

 GradGradGradGradGradGradGradGradGradGradGradGradGradGradGradGradGradGrad
 Berny optimization.
 Initialization pass.
                           ----------------------------
                           !    Initial Parameters    !
                           ! (Angstroms and Degrees)  !
 --------------------------                            --------------------------
 ! Name  Definition              Value          Derivative Info.                !
 --------------------------------------------------------------------------------
 ! R1    R(1,4)                  2.7466         estimate D2E/DX2                !
 ! R2    R(2,3)                  1.0991         estimate D2E/DX2                !
 ! R3    R(2,4)                  1.0939         estimate D2E/DX2                !
 ! R4    R(2,5)                  1.1081         estimate D2E/DX2                !
 ! R5    R(2,6)                  1.4339         estimate D2E/DX2                !
 ! R6    R(6,7)                  0.9691         estimate D2E/DX2                !
 ! A1    A(3,2,4)              102.7493         estimate D2E/DX2                !
 ! A2    A(3,2,5)              112.2886         estimate D2E/DX2                !
 ! A3    A(3,2,6)              111.2229         estimate D2E/DX2                !
 ! A4    A(4,2,5)              114.2406         estimate D2E/DX2                !
 ! A5    A(4,2,6)              112.6566         estimate D2E/DX2                !
 ! A6    A(5,2,6)              103.9544         estimate D2E/DX2                !
 ! A7    A(1,4,2)              122.3237         estimate D2E/DX2                !
 ! A8    A(2,6,7)              104.3979         estimate D2E/DX2                !
 ! D1    D(3,2,4,1)            -22.6283         estimate D2E/DX2                !
 ! D2    D(5,2,4,1)           -144.5217         estimate D2E/DX2                !
 ! D3    D(6,2,4,1)             97.1491         estimate D2E/DX2                !
 ! D4    D(3,2,6,7)             47.1939         estimate D2E/DX2                !
 ! D5    D(4,2,6,7)            -67.5547         estimate D2E/DX2                !
 ! D6    D(5,2,6,7)            168.2404         estimate D2E/DX2                !
 --------------------------------------------------------------------------------
 Trust Radius=3.00D-01 FncErr=1.00D-07 GrdErr=1.00D-07
 Number of steps in this run=     30 maximum allowed number of steps=    100.
 GradGradGradGradGradGradGradGradGradGradGradGradGradGradGradGradGradGrad

                          Input orientation:                          
 ---------------------------------------------------------------------
 Center     Atomic      Atomic             Coordinates (Angstroms)
 Number     Number       Type             X           Y           Z
 ---------------------------------------------------------------------
      1         17           0       -1.734639   -1.328557   -0.036659
      2          6           0        1.189640    0.513352    0.060606
      3          1           0        0.700845    0.328949    1.027595
      4          1           0        0.395365    0.290375   -0.657803
      5          1           0        1.596424    1.541235   -0.015424
      6          8           0        2.339214   -0.326858   -0.108508
      7          1           0        2.031211   -1.210316    0.143974
 ---------------------------------------------------------------------
                    Distance matrix (angstroms):
                    1          2          3          4          5
     1  Cl   0.000000
     2  C    3.457383   0.000000
     3  H    3.132339   1.099087   0.000000
     4  H    2.746576   1.093939   1.713293   0.000000
     5  H    4.396833   1.108060   1.832918   1.849282   0.000000
     6  O    4.195812   1.433901   2.098825   2.112167   2.012504
     7  H    3.772033   1.919954   2.218107   2.360278   2.790247
                    6          7
     6  O    0.000000
     7  H    0.969077   0.000000
 Stoichiometry    CH4ClO(1-)
 Framework group  C1[X(CH4ClO)]
 Deg. of freedom    15
 Full point group                 C1      NOp   1
 Largest Abelian subgroup         C1      NOp   1
 Largest concise Abelian subgroup C1      NOp   1
                         Standard orientation:                         
 ---------------------------------------------------------------------
 Center     Atomic      Atomic             Coordinates (Angstroms)
 Number     Number       Type             X           Y           Z
 ---------------------------------------------------------------------
      1         17           0       -1.907335   -0.061436   -0.005085
      2          6           0        1.476742    0.646495    0.013724
      3          1           0        0.958403    0.732620    0.979074
      4          1           0        0.651615    0.650087   -0.704506
      5          1           0        2.216892    1.456718   -0.139619
      6          8           0        2.259300   -0.553343   -0.050019
      7          1           0        1.662933   -1.247241    0.269297
 ---------------------------------------------------------------------
 Rotational constants (GHZ):     31.0951719      2.0632484      1.9587539
 Standard basis: CC-pVDZ (5D, 7F)
 There are    69 symmetry adapted cartesian basis functions of A   symmetry.
 There are    66 symmetry adapted basis functions of A   symmetry.
    66 basis functions,   165 primitive gaussians,    69 cartesian basis functions
    18 alpha electrons       18 beta electrons
       nuclear repulsion energy        83.3966673092 Hartrees.
 NAtoms=    7 NActive=    7 NUniq=    7 SFac= 1.00D+00 NAtFMM=   60 NAOKFM=F Big=F
 Integral buffers will be    131072 words long.
 Raffenetti 1 integral format.
 Two-electron integral symmetry is turned on.
 One-electron integrals computed using PRISM.
 NBasis=    66 RedAO= T EigKep=  1.61D-02  NBF=    66
 NBsUse=    66 1.00D-06 EigRej= -1.00D+00 NBFU=    66
 ExpMin= 1.22D-01 ExpMax= 1.28D+05 ExpMxC= 1.24D+03 IAcc=3 IRadAn=         7 AccDes= 0.00D+00
 Harris functional with IExCor=  205 and IRadAn=       7 diagonalized for initial guess.
 HarFok:  IExCor=  205 AccDes= 0.00D+00 IRadAn=         7 IDoV= 1 UseB2=F ITyADJ=14
 ICtDFT=  3500011 ScaDFX=  1.000000  1.000000  1.000000  1.000000
 FoFCou: FMM=F IPFlag=           0 FMFlag=      100000 FMFlg1=           0
         NFxFlg=           0 DoJE=T BraDBF=F KetDBF=T FulRan=T
         wScrn=  0.000000 ICntrl=     500 IOpCl=  0 I1Cent=   200000004 NGrid=           0
         NMat0=    1 NMatS0=      1 NMatT0=    0 NMatD0=    1 NMtDS0=    0 NMtDT0=    0
 Petite list used in FoFCou.
 Keep R1 ints in memory in canonical form, NReq=3410841.
 Requested convergence on RMS density matrix=1.00D-08 within 256 cycles.
 Requested convergence on MAX density matrix=1.00D-06.
 Requested convergence on             energy=1.00D-06.
 No special actions if energy rises.
 SCF Done:  E(RHF) =  -574.601182769     A.U. after   11 cycles
            NFock= 11  Conv=0.74D-08     -V/T= 2.0002
 ExpMin= 1.22D-01 ExpMax= 1.28D+05 ExpMxC= 1.24D+03 IAcc=3 IRadAn=         7 AccDes= 0.00D+00
 HarFok:  IExCor=  205 AccDes= 0.00D+00 IRadAn=         7 IDoV=-2 UseB2=F ITyADJ=14
 ICtDFT= 12500011 ScaDFX=  1.000000  1.000000  1.000000  1.000000
 Range of M.O.s used for correlation:     8    66
 NBasis=    66 NAE=    18 NBE=    18 NFC=     7 NFV=     0
 NROrb=     59 NOA=    11 NOB=    11 NVA=    48 NVB=    48
 Fully direct method using O(ONN) memory.
 JobTyp=1 Pass  1:  I=   8 to  18 NPSUse=  1 ParTrn=F ParDer=F DoDerP=T.
 Spin components of T(2) and E(2):
     alpha-alpha T2 =       0.1818673070D-01 E2=     -0.5889143813D-01
     alpha-beta  T2 =       0.1096751450D+00 E2=     -0.3587353196D+00
     beta-beta   T2 =       0.1818673070D-01 E2=     -0.5889143813D-01
 ANorm=    0.1070536597D+01
 E2 =    -0.4765181958D+00 EUMP2 =    -0.57507770096509D+03
          IDoAtm=1111111
          Differentiating once with respect to electric field.
                with respect to dipole field.
          Differentiating once with respect to nuclear coordinates.
 Keep R1 ints in memory in canonical form, NReq=3352538.
          There are     1 degrees of freedom in the 1st order CPHF.  IDoFFX=0 NUNeed=     1.
 LinEq1:  Iter=  0 NonCon=     1 RMS=3.56D-03 Max=2.78D-02 NDo=     1
 AX will form     1 AO Fock derivatives at one time.
 LinEq1:  Iter=  1 NonCon=     1 RMS=8.35D-04 Max=7.19D-03 NDo=     1
 LinEq1:  Iter=  2 NonCon=     1 RMS=2.11D-04 Max=1.58D-03 NDo=     1
 LinEq1:  Iter=  3 NonCon=     1 RMS=7.57D-05 Max=6.25D-04 NDo=     1
 LinEq1:  Iter=  4 NonCon=     1 RMS=1.83D-05 Max=1.35D-04 NDo=     1
 LinEq1:  Iter=  5 NonCon=     1 RMS=4.22D-06 Max=3.17D-05 NDo=     1
 LinEq1:  Iter=  6 NonCon=     1 RMS=1.01D-06 Max=8.36D-06 NDo=     1
 LinEq1:  Iter=  7 NonCon=     1 RMS=1.87D-07 Max=1.29D-06 NDo=     1
 LinEq1:  Iter=  8 NonCon=     1 RMS=3.74D-08 Max=3.19D-07 NDo=     1
 LinEq1:  Iter=  9 NonCon=     1 RMS=7.02D-09 Max=7.14D-08 NDo=     1
 LinEq1:  Iter= 10 NonCon=     1 RMS=1.69D-09 Max=1.62D-08 NDo=     1
 LinEq1:  Iter= 11 NonCon=     1 RMS=2.97D-10 Max=2.49D-09 NDo=     1
 LinEq1:  Iter= 12 NonCon=     0 RMS=4.92D-11 Max=3.44D-10 NDo=     1
 Linear equations converged to 1.000D-10 1.000D-09 after    12 iterations.
 End of Minotr F.D. properties file   721 does not exist.
 End of Minotr F.D. properties file   722 does not exist.
 End of Minotr F.D. properties file   788 does not exist.

 **********************************************************************

            Population analysis using the SCF density.

 **********************************************************************

 Orbital symmetries:
       Occupied  (A) (A) (A) (A) (A) (A) (A) (A) (A) (A) (A) (A)
                 (A) (A) (A) (A) (A) (A)
       Virtual   (A) (A) (A) (A) (A) (A) (A) (A) (A) (A) (A) (A)
                 (A) (A) (A) (A) (A) (A) (A) (A) (A) (A) (A) (A)
                 (A) (A) (A) (A) (A) (A) (A) (A) (A) (A) (A) (A)
                 (A) (A) (A) (A) (A) (A) (A) (A) (A) (A) (A) (A)
 The electronic state is 1-A.
 Alpha  occ. eigenvalues -- -104.48224 -20.40859 -11.12051 -10.20348  -7.66976
 Alpha  occ. eigenvalues --   -7.66968  -7.66965  -1.20257  -0.76320  -0.71661
 Alpha  occ. eigenvalues --   -0.53669  -0.45382  -0.43082  -0.36043  -0.29206
 Alpha  occ. eigenvalues --   -0.13650  -0.13591  -0.13526
 Alpha virt. eigenvalues --    0.33804   0.36072   0.41612   0.45413   0.50723
 Alpha virt. eigenvalues --    0.76728   0.80087   0.86474   0.94978   0.99888
 Alpha virt. eigenvalues --    1.01511   1.04998   1.07727   1.09159   1.11070
 Alpha virt. eigenvalues --    1.19030   1.28379   1.30724   1.31039   1.32072
 Alpha virt. eigenvalues --    1.32104   1.32377   1.34358   1.37728   1.42194
 Alpha virt. eigenvalues --    1.48289   1.58380   1.72788   1.81005   1.82136
 Alpha virt. eigenvalues --    2.04308   2.07580   2.09110   2.10288   2.16975
 Alpha virt. eigenvalues --    2.29532   2.44806   2.50994   2.52927   2.64677
 Alpha virt. eigenvalues --    2.89889   2.90685   2.94483   3.44706   3.50627
 Alpha virt. eigenvalues --    3.58336   3.71003   4.22392
          Condensed to atoms (all electrons):
               1          2          3          4          5          6
     1  Cl  17.934384  -0.018165   0.010344   0.024707   0.000961  -0.000000
     2  C   -0.018165   4.397414   0.414558   0.416129   0.384985   0.295467
     3  H    0.010344   0.414558   0.650635  -0.032324  -0.030661  -0.026787
     4  H    0.024707   0.416129  -0.032324   0.582211  -0.029213  -0.023636
     5  H    0.000961   0.384985  -0.030661  -0.029213   0.709603  -0.030253
     6  O   -0.000000   0.295467  -0.026787  -0.023636  -0.030253   7.867315
     7  H    0.003163  -0.047236  -0.007634  -0.002141   0.009253   0.356592
               7
     1  Cl   0.003163
     2  C   -0.047236
     3  H   -0.007634
     4  H   -0.002141
     5  H    0.009253
     6  O    0.356592
     7  H    0.522224
 Mulliken charges:
               1
     1  Cl  -0.955393
     2  C    0.156849
     3  H    0.021869
     4  H    0.064267
     5  H   -0.014675
     6  O   -0.438696
     7  H    0.165780
 Sum of Mulliken charges =  -1.00000
 Mulliken charges with hydrogens summed into heavy atoms:
               1
     1  Cl  -0.955393
     2  C    0.228310
     6  O   -0.272917
 Electronic spatial extent (au):  <R**2>=            568.1431
 Charge=             -1.0000 electrons
 Dipole moment (field-independent basis, Debye):
    X=              6.0681    Y=              0.3290    Z=              0.5981  Tot=              6.1064
 Quadrupole moment (field-independent basis, Debye-Ang):
   XX=            -54.7570   YY=            -27.1637   ZZ=            -28.9440
   XY=              0.7314   XZ=              0.9267   YZ=             -0.8710
 Traceless Quadrupole moment (field-independent basis, Debye-Ang):
   XX=            -17.8021   YY=              9.7912   ZZ=              8.0110
   XY=              0.7314   XZ=              0.9267   YZ=             -0.8710
 Octapole moment (field-independent basis, Debye-Ang**2):
  XXX=             20.5165  YYY=             -6.2965  ZZZ=              0.3635  XYY=              7.2678
  XXY=              5.4701  XXZ=              1.5222  XZZ=              4.3707  YZZ=             -1.0408
  YYZ=              0.9900  XYZ=             -1.5462
 Hexadecapole moment (field-independent basis, Debye-Ang**3):
 XXXX=           -768.6112 YYYY=            -68.5989 ZZZZ=            -37.1129 XXXY=              9.3390
 XXXZ=              1.4100 YYYX=            -11.7550 YYYZ=             -1.6441 ZZZX=              0.2682
 ZZZY=             -0.3124 XXYY=           -116.9369 XXZZ=           -115.1207 YYZZ=            -18.6125
 XXYZ=             -3.1260 YYXZ=              1.4313 ZZXY=             -2.5249
 N-N= 8.339666730920D+01 E-N=-1.541706695415D+03  KE= 5.744865431586D+02
 Calling FoFJK, ICntrl=  10002127 FMM=F ISym2X=0 I1Cent= 0 IOpClX= 0 NMat=1 NMatS=1 NMatT=0.
 ***** Axes restored to original set *****
 -------------------------------------------------------------------
 Center     Atomic                   Forces (Hartrees/Bohr)
 Number     Number              X              Y              Z
 -------------------------------------------------------------------
      1       17           0.001093122   -0.000921510    0.000388930
      2        6           0.008918050   -0.003880643    0.001831626
      3        1           0.000764373    0.005551998    0.005326800
      4        1          -0.001962709    0.003230107   -0.007170141
      5        1          -0.007935408   -0.000781433    0.000490697
      6        8           0.001336916   -0.005148108    0.002637218
      7        1          -0.002214344    0.001949589   -0.003505131
 -------------------------------------------------------------------
 Cartesian Forces:  Max     0.008918050 RMS     0.004057206

 GradGradGradGradGradGradGradGradGradGradGradGradGradGradGradGradGradGrad
 Berny optimization.
 FormGI is forming the generalized inverse of G from B-inverse, IUseBI=4.
 Internal  Forces:  Max     0.008479277 RMS     0.003833499
 Search for a local minimum.
 Step number   1 out of a maximum of   30
 All quantities printed in internal units (Hartrees-Bohrs-Radians)
 Mixed Optimization -- RFO/linear search
 Second derivative matrix not updated -- first step.
 The second derivative matrix:
                          R1        R2        R3        R4        R5
           R1           0.01865
           R2           0.00000   0.33783
           R3           0.00000   0.00000   0.34361
           R4           0.00000   0.00000   0.00000   0.32806
           R5           0.00000   0.00000   0.00000   0.00000   0.40434
           R6           0.00000   0.00000   0.00000   0.00000   0.00000
           A1           0.00000   0.00000   0.00000   0.00000   0.00000
           A2           0.00000   0.00000   0.00000   0.00000   0.00000
           A3           0.00000   0.00000   0.00000   0.00000   0.00000
           A4           0.00000   0.00000   0.00000   0.00000   0.00000
           A5           0.00000   0.00000   0.00000   0.00000   0.00000
           A6           0.00000   0.00000   0.00000   0.00000   0.00000
           A7           0.00000   0.00000   0.00000   0.00000   0.00000
           A8           0.00000   0.00000   0.00000   0.00000   0.00000
           D1           0.00000   0.00000   0.00000   0.00000   0.00000
           D2           0.00000   0.00000   0.00000   0.00000   0.00000
           D3           0.00000   0.00000   0.00000   0.00000   0.00000
           D4           0.00000   0.00000   0.00000   0.00000   0.00000
           D5           0.00000   0.00000   0.00000   0.00000   0.00000
           D6           0.00000   0.00000   0.00000   0.00000   0.00000
                          R6        A1        A2        A3        A4
           R6           0.53566
           A1           0.00000   0.16000
           A2           0.00000   0.00000   0.16000
           A3           0.00000   0.00000   0.00000   0.16000
           A4           0.00000   0.00000   0.00000   0.00000   0.16000
           A5           0.00000   0.00000   0.00000   0.00000   0.00000
           A6           0.00000   0.00000   0.00000   0.00000   0.00000
           A7           0.00000   0.00000   0.00000   0.00000   0.00000
           A8           0.00000   0.00000   0.00000   0.00000   0.00000
           D1           0.00000   0.00000   0.00000   0.00000   0.00000
           D2           0.00000   0.00000   0.00000   0.00000   0.00000
           D3           0.00000   0.00000   0.00000   0.00000   0.00000
           D4           0.00000   0.00000   0.00000   0.00000   0.00000
           D5           0.00000   0.00000   0.00000   0.00000   0.00000
           D6           0.00000   0.00000   0.00000   0.00000   0.00000
                          A5        A6        A7        A8        D1
           A5           0.16000
           A6           0.00000   0.16000
           A7           0.00000   0.00000   0.25000
           A8           0.00000   0.00000   0.00000   0.16000
           D1           0.00000   0.00000   0.00000   0.00000   0.00230
           D2           0.00000   0.00000   0.00000   0.00000   0.00000
           D3           0.00000   0.00000   0.00000   0.00000   0.00000
           D4           0.00000   0.00000   0.00000   0.00000   0.00000
           D5           0.00000   0.00000   0.00000   0.00000   0.00000
           D6           0.00000   0.00000   0.00000   0.00000   0.00000
                          D2        D3        D4        D5        D6
           D2           0.00230
           D3           0.00000   0.00230
           D4           0.00000   0.00000   0.01243
           D5           0.00000   0.00000   0.00000   0.01243
           D6           0.00000   0.00000   0.00000   0.00000   0.01243
 ITU=  0
     Eigenvalues ---    0.00230   0.01243   0.01865   0.07579   0.08903
     Eigenvalues ---    0.12130   0.14413   0.16000   0.16000   0.25000
     Eigenvalues ---    0.32806   0.33783   0.34361   0.40434   0.53566
 RFO step:  Lambda=-3.87368475D-03 EMin= 2.30000000D-03
 Linear search not attempted -- first point.
 Iteration  1 RMS(Cart)=  0.14563091 RMS(Int)=  0.03225644
 Iteration  2 RMS(Cart)=  0.04477595 RMS(Int)=  0.00106219
 Iteration  3 RMS(Cart)=  0.00163338 RMS(Int)=  0.00014609
 Iteration  4 RMS(Cart)=  0.00000168 RMS(Int)=  0.00014609
 Iteration  5 RMS(Cart)=  0.00000000 RMS(Int)=  0.00014609
 Variable       Old X    -DE/DX   Delta X   Delta X   Delta X     New X
                                 (Linear)    (Quad)   (Total)
    R1        5.19028  -0.00022   0.00000  -0.00962  -0.00962   5.18066
    R2        2.07697   0.00342   0.00000   0.00999   0.00999   2.08697
    R3        2.06725   0.00461   0.00000   0.01328   0.01328   2.08052
    R4        2.09393  -0.00367   0.00000  -0.01106  -0.01106   2.08287
    R5        2.70968   0.00127   0.00000   0.00312   0.00312   2.71280
    R6        1.83129  -0.00199   0.00000  -0.00368  -0.00368   1.82761
    A1        1.79331   0.00437   0.00000   0.02706   0.02714   1.82045
    A2        1.95981  -0.00493   0.00000  -0.04355  -0.04383   1.91597
    A3        1.94121   0.00107   0.00000   0.01236   0.01238   1.95358
    A4        1.99387  -0.00441   0.00000  -0.03354  -0.03335   1.96052
    A5        1.96623  -0.00515   0.00000  -0.02441  -0.02426   1.94197
    A6        1.81435   0.00848   0.00000   0.05838   0.05831   1.87265
    A7        2.13495  -0.00458   0.00000  -0.01803  -0.01803   2.11692
    A8        1.82209  -0.00380   0.00000  -0.02319  -0.02319   1.79889
    D1       -0.39494  -0.00401   0.00000  -0.30141  -0.30129  -0.69623
    D2       -2.52238   0.00151   0.00000  -0.24787  -0.24784  -2.77022
    D3        1.69557  -0.00264   0.00000  -0.28234  -0.28249   1.41308
    D4        0.82369   0.00316   0.00000   0.14168   0.14145   0.96514
    D5       -1.17905   0.00022   0.00000   0.11514   0.11498  -1.06408
    D6        2.93635   0.00295   0.00000   0.13136   0.13176   3.06811
         Item               Value     Threshold  Converged?
 Maximum Force            0.008479     0.000015     NO 
 RMS     Force            0.003833     0.000010     NO 
 Maximum Displacement     0.435237     0.000060     NO 
 RMS     Displacement     0.185984     0.000040     NO 
 Predicted change in Energy=-2.501979D-03
 GradGradGradGradGradGradGradGradGradGradGradGradGradGradGradGradGradGrad

                          Input orientation:                          
 ---------------------------------------------------------------------
 Center     Atomic      Atomic             Coordinates (Angstroms)
 Number     Number       Type             X           Y           Z
 ---------------------------------------------------------------------
      1         17           0       -1.546306   -1.497952   -0.088277
      2          6           0        1.212877    0.556505    0.082718
      3          1           0        0.753804    0.488684    1.084865
      4          1           0        0.376121    0.385073   -0.611959
      5          1           0        1.671380    1.549858   -0.051013
      6          8           0        2.249290   -0.419949   -0.099475
      7          1           0        1.800893   -1.254039    0.096924
 ---------------------------------------------------------------------
                    Distance matrix (angstroms):
                    1          2          3          4          5
     1  Cl   0.000000
     2  C    3.444288   0.000000
     3  H    3.257835   1.104376   0.000000
     4  H    2.741487   1.100966   1.741434   0.000000
     5  H    4.432159   1.102207   1.805063   1.830049   0.000000
     6  O    3.945727   1.435552   2.112996   2.102252   2.053404
     7  H    3.361181   1.903689   2.260421   2.284553   2.810782
                    6          7
     6  O    0.000000
     7  H    0.967129   0.000000
 Stoichiometry    CH4ClO(1-)
 Framework group  C1[X(CH4ClO)]
 Deg. of freedom    15
 Full point group                 C1      NOp   1
 Largest Abelian subgroup         C1      NOp   1
 Largest concise Abelian subgroup C1      NOp   1
                         Standard orientation:                         
 ---------------------------------------------------------------------
 Center     Atomic      Atomic             Coordinates (Angstroms)
 Number     Number       Type             X           Y           Z
 ---------------------------------------------------------------------
      1         17           0       -1.834242   -0.042639   -0.004118
      2          6           0        1.533610    0.678870    0.006512
      3          1           0        1.111584    0.923008    0.997440
      4          1           0        0.685696    0.794276   -0.686199
      5          1           0        2.361467    1.368262   -0.226405
      6          8           0        2.063609   -0.654559   -0.036816
      7          1           0        1.312836   -1.197425    0.240626
 ---------------------------------------------------------------------
 Rotational constants (GHZ):     26.9216829      2.2566886      2.1100568
 Standard basis: CC-pVDZ (5D, 7F)
 There are    69 symmetry adapted cartesian basis functions of A   symmetry.
 There are    66 symmetry adapted basis functions of A   symmetry.
    66 basis functions,   165 primitive gaussians,    69 cartesian basis functions
    18 alpha electrons       18 beta electrons
       nuclear repulsion energy        84.6573222201 Hartrees.
 NAtoms=    7 NActive=    7 NUniq=    7 SFac= 1.00D+00 NAtFMM=   60 NAOKFM=F Big=F
 Integral buffers will be    131072 words long.
 Raffenetti 1 integral format.
 Two-electron integral symmetry is turned on.
 One-electron integrals computed using PRISM.
 NBasis=    66 RedAO= T EigKep=  1.66D-02  NBF=    66
 NBsUse=    66 1.00D-06 EigRej= -1.00D+00 NBFU=    66
 Initial guess from the checkpoint file:  "/localscratch/rjackson.18103347.0/Gau-37007.chk"
 B after Tr=     0.000000   -0.000000    0.000000
         Rot=    0.999811    0.012873   -0.000653    0.014588 Ang=   2.23 deg.
 ExpMin= 1.22D-01 ExpMax= 1.28D+05 ExpMxC= 1.24D+03 IAcc=3 IRadAn=         5 AccDes= 0.00D+00
 Harris functional with IExCor=  205 and IRadAn=       5 diagonalized for initial guess.
 HarFok:  IExCor=  205 AccDes= 0.00D+00 IRadAn=         5 IDoV= 1 UseB2=F ITyADJ=14
 ICtDFT=  3500011 ScaDFX=  1.000000  1.000000  1.000000  1.000000
 FoFCou: FMM=F IPFlag=           0 FMFlag=      100000 FMFlg1=           0
         NFxFlg=           0 DoJE=T BraDBF=F KetDBF=T FulRan=T
         wScrn=  0.000000 ICntrl=     500 IOpCl=  0 I1Cent=   200000004 NGrid=           0
         NMat0=    1 NMatS0=      1 NMatT0=    0 NMatD0=    1 NMtDS0=    0 NMtDT0=    0
 Petite list used in FoFCou.
 Keep R1 ints in memory in canonical form, NReq=3411245.
 Requested convergence on RMS density matrix=1.00D-08 within 256 cycles.
 Requested convergence on MAX density matrix=1.00D-06.
 Requested convergence on             energy=1.00D-06.
 No special actions if energy rises.
 SCF Done:  E(RHF) =  -574.604433282     A.U. after   12 cycles
            NFock= 12  Conv=0.40D-08     -V/T= 2.0002
 ExpMin= 1.22D-01 ExpMax= 1.28D+05 ExpMxC= 1.24D+03 IAcc=3 IRadAn=         7 AccDes= 0.00D+00
 HarFok:  IExCor=  205 AccDes= 0.00D+00 IRadAn=         7 IDoV=-2 UseB2=F ITyADJ=14
 ICtDFT= 12500011 ScaDFX=  1.000000  1.000000  1.000000  1.000000
 Range of M.O.s used for correlation:     8    66
 NBasis=    66 NAE=    18 NBE=    18 NFC=     7 NFV=     0
 NROrb=     59 NOA=    11 NOB=    11 NVA=    48 NVB=    48
 Fully direct method using O(ONN) memory.
 JobTyp=1 Pass  1:  I=   8 to  18 NPSUse=  1 ParTrn=F ParDer=F DoDerP=T.
 Spin components of T(2) and E(2):
     alpha-alpha T2 =       0.1824389657D-01 E2=     -0.5897741276D-01
     alpha-beta  T2 =       0.1099055165D+00 E2=     -0.3590443397D+00
     beta-beta   T2 =       0.1824389657D-01 E2=     -0.5897741276D-01
 ANorm=    0.1070697581D+01
 E2 =    -0.4769991652D+00 EUMP2 =    -0.57508143244766D+03
          IDoAtm=1111111
          Differentiating once with respect to electric field.
                with respect to dipole field.
          Differentiating once with respect to nuclear coordinates.
 Keep R1 ints in memory in canonical form, NReq=3353039.
          There are     1 degrees of freedom in the 1st order CPHF.  IDoFFX=0 NUNeed=     1.
 LinEq1:  Iter=  0 NonCon=     1 RMS=3.61D-03 Max=2.59D-02 NDo=     1
 AX will form     1 AO Fock derivatives at one time.
 LinEq1:  Iter=  1 NonCon=     1 RMS=8.55D-04 Max=7.58D-03 NDo=     1
 LinEq1:  Iter=  2 NonCon=     1 RMS=2.15D-04 Max=1.54D-03 NDo=     1
 LinEq1:  Iter=  3 NonCon=     1 RMS=7.58D-05 Max=6.29D-04 NDo=     1
 LinEq1:  Iter=  4 NonCon=     1 RMS=1.81D-05 Max=1.47D-04 NDo=     1
 LinEq1:  Iter=  5 NonCon=     1 RMS=4.17D-06 Max=3.38D-05 NDo=     1
 LinEq1:  Iter=  6 NonCon=     1 RMS=9.85D-07 Max=8.44D-06 NDo=     1
 LinEq1:  Iter=  7 NonCon=     1 RMS=1.77D-07 Max=1.23D-06 NDo=     1
 LinEq1:  Iter=  8 NonCon=     1 RMS=3.39D-08 Max=2.53D-07 NDo=     1
 LinEq1:  Iter=  9 NonCon=     1 RMS=5.55D-09 Max=4.76D-08 NDo=     1
 LinEq1:  Iter= 10 NonCon=     1 RMS=1.32D-09 Max=1.42D-08 NDo=     1
 LinEq1:  Iter= 11 NonCon=     1 RMS=2.59D-10 Max=2.38D-09 NDo=     1
 LinEq1:  Iter= 12 NonCon=     0 RMS=4.64D-11 Max=3.76D-10 NDo=     1
 Linear equations converged to 1.000D-10 1.000D-09 after    12 iterations.
 End of Minotr F.D. properties file   721 does not exist.
 End of Minotr F.D. properties file   722 does not exist.
 End of Minotr F.D. properties file   788 does not exist.
 Calling FoFJK, ICntrl=  10002127 FMM=F ISym2X=0 I1Cent= 0 IOpClX= 0 NMat=1 NMatS=1 NMatT=0.
 ***** Axes restored to original set *****
 -------------------------------------------------------------------
 Center     Atomic                   Forces (Hartrees/Bohr)
 Number     Number              X              Y              Z
 -------------------------------------------------------------------
      1       17           0.002489013   -0.001089160    0.000483048
      2        6          -0.000427833   -0.007968378   -0.001073704
      3        1           0.002005349    0.002084717    0.001754957
      4        1           0.000282159    0.002970360   -0.001543855
      5        1           0.000754332    0.000565909   -0.000968013
      6        8          -0.000889868    0.004695557    0.004209491
      7        1          -0.004213153   -0.001259005   -0.002861924
 -------------------------------------------------------------------
 Cartesian Forces:  Max     0.007968378 RMS     0.002803839

 GradGradGradGradGradGradGradGradGradGradGradGradGradGradGradGradGradGrad
 Berny optimization.
 Using GEDIIS/GDIIS optimizer.
 FormGI is forming the generalized inverse of G from B-inverse, IUseBI=4.
 Internal  Forces:  Max     0.009438403 RMS     0.003397387
 Search for a local minimum.
 Step number   2 out of a maximum of   30
 All quantities printed in internal units (Hartrees-Bohrs-Radians)
 Mixed Optimization -- RFO/linear search
 Update second derivatives using D2CorX and points    1    2
 DE= -3.73D-03 DEPred=-2.50D-03 R= 1.49D+00
 TightC=F SS=  1.41D+00  RLast= 5.40D-01 DXNew= 5.0454D-01 1.6208D+00
 Trust test= 1.49D+00 RLast= 5.40D-01 DXMaxT set to 5.05D-01
 The second derivative matrix:
                          R1        R2        R3        R4        R5
           R1           0.02082
           R2           0.00906   0.36943
           R3           0.02044   0.07586   0.52166
           R4          -0.01489  -0.05478  -0.12895   0.42142
           R5           0.02379   0.09433   0.21637  -0.15720   0.66087
           R6          -0.01424  -0.05466  -0.12679   0.09197  -0.15216
           A1           0.00572   0.01663   0.04284  -0.03066   0.05692
           A2          -0.01282  -0.04138  -0.10229   0.07359  -0.13089
           A3           0.00629   0.02247   0.05346  -0.03865   0.06587
           A4          -0.01927  -0.06997  -0.16552   0.11975  -0.20278
           A5          -0.00345  -0.00816  -0.02303   0.01630  -0.03291
           A6           0.02186   0.07447   0.18032  -0.13007   0.22619
           A7           0.01514   0.06796   0.14971  -0.10938   0.16944
           A8           0.00186   0.01305   0.02551  -0.01897   0.02446
           D1          -0.00700  -0.02729  -0.06297   0.04571  -0.07515
           D2           0.01428   0.05861   0.13288  -0.09669   0.15553
           D3           0.00251   0.01112   0.02458  -0.01795   0.02796
           D4           0.00194   0.00520   0.01387  -0.00988   0.01895
           D5          -0.00706  -0.03070  -0.06833   0.04985  -0.07827
           D6           0.00327   0.01077   0.02640  -0.01901   0.03352
                          R6        A1        A2        A3        A4
           R6           0.62537
           A1          -0.03195   0.16662
           A2           0.07480  -0.01963   0.21203
           A3          -0.03834   0.01217  -0.02977   0.17592
           A4           0.11835  -0.03858   0.09341  -0.04946   0.31344
           A5           0.01787  -0.00181   0.00818  -0.00621   0.02015
           A6          -0.13051   0.03804  -0.09637   0.05313  -0.16583
           A7          -0.10288   0.04548  -0.09883   0.04673  -0.14237
           A8          -0.01622   0.01109  -0.02136   0.00859  -0.02539
           D1           0.04443  -0.01619   0.03759  -0.01910   0.05889
           D2          -0.09285   0.03648  -0.08245   0.04074  -0.12505
           D3          -0.01693   0.00737  -0.01609   0.00765  -0.02334
           D4          -0.01050   0.00174  -0.00581   0.00386  -0.01235
           D5           0.04723  -0.02005   0.04414  -0.02119   0.06473
           D6          -0.01923   0.00526  -0.01369   0.00772  -0.02417
                          A5        A6        A7        A8        D1
           A5           0.15919
           A6          -0.01790   0.33488
           A7          -0.02896   0.16536   0.35153
           A8          -0.00832   0.03302   0.00872   0.15699
           D1           0.00920  -0.06529  -0.05026  -0.00762   0.02427
           D2          -0.02176   0.14112   0.10013   0.01297  -0.04572
           D3          -0.00465   0.02701   0.01694   0.00157  -0.00828
           D4          -0.00018   0.01173   0.01575   0.00413  -0.00536
           D5           0.01250  -0.07443  -0.04817  -0.00494   0.02314
           D6          -0.00231   0.02515   0.02500   0.00525  -0.00965
                          D2        D3        D4        D5        D6
           D2           0.09595
           D3           0.01657   0.00512
           D4           0.01230   0.00254   0.01282
           D5          -0.04657  -0.00801  -0.00688   0.03512
           D6           0.02104   0.00408   0.00158  -0.01120   0.01602
 ITU=  1  0
 Use linear search instead of GDIIS.
     Eigenvalues ---    0.00004   0.00897   0.01874   0.07648   0.09492
     Eigenvalues ---    0.12605   0.14069   0.15767   0.18830   0.27242
     Eigenvalues ---    0.33226   0.33840   0.37458   0.51751   1.64279
 RFO step:  Lambda=-2.29573056D-03 EMin= 4.17850224D-05
 Quartic linear search produced a step of  2.00000.
 Iteration  1 RMS(Cart)=  0.24074327 RMS(Int)=  0.20308698
 Iteration  2 RMS(Cart)=  0.13251112 RMS(Int)=  0.10548963
 Iteration  3 RMS(Cart)=  0.11685272 RMS(Int)=  0.02827404
 Iteration  4 RMS(Cart)=  0.04194749 RMS(Int)=  0.00191793
 Iteration  5 RMS(Cart)=  0.00177677 RMS(Int)=  0.00158873
 Iteration  6 RMS(Cart)=  0.00000134 RMS(Int)=  0.00158873
 Iteration  7 RMS(Cart)=  0.00000000 RMS(Int)=  0.00158873
 Variable       Old X    -DE/DX   Delta X   Delta X   Delta X     New X
                                 (Linear)    (Quad)   (Total)
    R1        5.18066  -0.00091  -0.01923  -0.05427  -0.07351   5.10715
    R2        2.08697   0.00063   0.01999   0.00779   0.02778   2.11475
    R3        2.08052  -0.00173   0.02656   0.00089   0.02745   2.10797
    R4        2.08287   0.00094  -0.02212  -0.00239  -0.02452   2.05835
    R5        2.71280  -0.00619   0.00624  -0.01761  -0.01137   2.70143
    R6        1.82761   0.00246  -0.00736   0.00374  -0.00362   1.82398
    A1        1.82045   0.00266   0.05428   0.03383   0.08950   1.90995
    A2        1.91597  -0.00104  -0.08766  -0.02659  -0.11510   1.80087
    A3        1.95358  -0.00087   0.02475  -0.00695   0.01856   1.97214
    A4        1.96052   0.00155  -0.06671  -0.00031  -0.06387   1.89665
    A5        1.94197  -0.00414  -0.04851  -0.04585  -0.09206   1.84991
    A6        1.87265   0.00179   0.11661   0.04363   0.15974   2.03239
    A7        2.11692  -0.00944  -0.03607  -0.05703  -0.09310   2.02381
    A8        1.79889  -0.00446  -0.04639  -0.04650  -0.09288   1.70601
    D1       -0.69623  -0.00182  -0.60259  -0.11151  -0.71344  -1.40967
    D2       -2.77022  -0.00299  -0.49568  -0.10010  -0.59407   2.91890
    D3        1.41308  -0.00344  -0.56498  -0.12361  -0.69095   0.72213
    D4        0.96514   0.00259   0.28289   0.16470   0.44614   1.41128
    D5       -1.06408   0.00247   0.22995   0.15620   0.38374  -0.68034
    D6        3.06811   0.00195   0.26351   0.15615   0.42353  -2.79155
         Item               Value     Threshold  Converged?
 Maximum Force            0.009438     0.000015     NO 
 RMS     Force            0.003397     0.000010     NO 
 Maximum Displacement     1.193498     0.000060     NO 
 RMS     Displacement     0.487853     0.000040     NO 
 Predicted change in Energy=-9.974317D-03
 GradGradGradGradGradGradGradGradGradGradGradGradGradGradGradGradGradGrad

                          Input orientation:                          
 ---------------------------------------------------------------------
 Center     Atomic      Atomic             Coordinates (Angstroms)
 Number     Number       Type             X           Y           Z
 ---------------------------------------------------------------------
      1         17           0       -0.972142   -1.840526   -0.288032
      2          6           0        1.259081    0.614333    0.139260
      3          1           0        1.002965    0.842697    1.204430
      4          1           0        0.320708    0.526712   -0.457480
      5          1           0        1.795759    1.505451   -0.183719
      6          8           0        1.942368   -0.631692   -0.016026
      7          1           0        1.169322   -1.208794    0.015348
 ---------------------------------------------------------------------
                    Distance matrix (angstroms):
                    1          2          3          4          5
     1  Cl   0.000000
     2  C    3.344737   0.000000
     3  H    3.650778   1.119077   0.000000
     4  H    2.702589   1.115491   1.824079   0.000000
     5  H    4.343699   1.089234   1.730527   1.791271   0.000000
     6  O    3.166960   1.429536   2.132092   2.041216   2.148720
     7  H    2.253218   1.829536   2.377016   1.988892   2.792701
                    6          7
     6  O    0.000000
     7  H    0.965211   0.000000
 Stoichiometry    CH4ClO(1-)
 Framework group  C1[X(CH4ClO)]
 Deg. of freedom    15
 Full point group                 C1      NOp   1
 Largest Abelian subgroup         C1      NOp   1
 Largest concise Abelian subgroup C1      NOp   1
                         Standard orientation:                         
 ---------------------------------------------------------------------
 Center     Atomic      Atomic             Coordinates (Angstroms)
 Number     Number       Type             X           Y           Z
 ---------------------------------------------------------------------
      1         17           0       -1.608883    0.046586   -0.000541
      2          6           0        1.691535    0.589248   -0.004945
      3          1           0        1.757373    1.015926    1.027501
      4          1           0        0.836826    1.058629   -0.546676
      5          1           0        2.620812    0.917193   -0.468978
      6          8           0        1.437869   -0.817580   -0.012685
      7          1           0        0.483840   -0.778547    0.128510
 ---------------------------------------------------------------------
 Rotational constants (GHZ):     25.3509724      2.9747394      2.7081507
 Standard basis: CC-pVDZ (5D, 7F)
 There are    69 symmetry adapted cartesian basis functions of A   symmetry.
 There are    66 symmetry adapted basis functions of A   symmetry.
    66 basis functions,   165 primitive gaussians,    69 cartesian basis functions
    18 alpha electrons       18 beta electrons
       nuclear repulsion energy        90.8061940226 Hartrees.
 NAtoms=    7 NActive=    7 NUniq=    7 SFac= 1.00D+00 NAtFMM=   60 NAOKFM=F Big=F
 Integral buffers will be    131072 words long.
 Raffenetti 1 integral format.
 Two-electron integral symmetry is turned on.
 One-electron integrals computed using PRISM.
 NBasis=    66 RedAO= T EigKep=  1.70D-02  NBF=    66
 NBsUse=    66 1.00D-06 EigRej= -1.00D+00 NBFU=    66
 Initial guess from the checkpoint file:  "/localscratch/rjackson.18103347.0/Gau-37007.chk"
 B after Tr=    -0.000000   -0.000000   -0.000000
         Rot=    0.998290    0.015683   -0.004372    0.056150 Ang=   6.70 deg.
 ExpMin= 1.22D-01 ExpMax= 1.28D+05 ExpMxC= 1.24D+03 IAcc=3 IRadAn=         5 AccDes= 0.00D+00
 Harris functional with IExCor=  205 and IRadAn=       5 diagonalized for initial guess.
 HarFok:  IExCor=  205 AccDes= 0.00D+00 IRadAn=         5 IDoV= 1 UseB2=F ITyADJ=14
 ICtDFT=  3500011 ScaDFX=  1.000000  1.000000  1.000000  1.000000
 FoFCou: FMM=F IPFlag=           0 FMFlag=      100000 FMFlg1=           0
         NFxFlg=           0 DoJE=T BraDBF=F KetDBF=T FulRan=T
         wScrn=  0.000000 ICntrl=     500 IOpCl=  0 I1Cent=   200000004 NGrid=           0
         NMat0=    1 NMatS0=      1 NMatT0=    0 NMatD0=    1 NMtDS0=    0 NMtDT0=    0
 Petite list used in FoFCou.
 Keep R1 ints in memory in canonical form, NReq=3412148.
 Requested convergence on RMS density matrix=1.00D-08 within 256 cycles.
 Requested convergence on MAX density matrix=1.00D-06.
 Requested convergence on             energy=1.00D-06.
 No special actions if energy rises.
 SCF Done:  E(RHF) =  -574.608612614     A.U. after   13 cycles
            NFock= 13  Conv=0.28D-08     -V/T= 2.0002
 ExpMin= 1.22D-01 ExpMax= 1.28D+05 ExpMxC= 1.24D+03 IAcc=3 IRadAn=         7 AccDes= 0.00D+00
 HarFok:  IExCor=  205 AccDes= 0.00D+00 IRadAn=         7 IDoV=-2 UseB2=F ITyADJ=14
 ICtDFT= 12500011 ScaDFX=  1.000000  1.000000  1.000000  1.000000
 Range of M.O.s used for correlation:     8    66
 NBasis=    66 NAE=    18 NBE=    18 NFC=     7 NFV=     0
 NROrb=     59 NOA=    11 NOB=    11 NVA=    48 NVB=    48
 Fully direct method using O(ONN) memory.
 JobTyp=1 Pass  1:  I=   8 to  18 NPSUse=  1 ParTrn=F ParDer=F DoDerP=T.
 Spin components of T(2) and E(2):
     alpha-alpha T2 =       0.1870697295D-01 E2=     -0.6000879177D-01
     alpha-beta  T2 =       0.1113117932D+00 E2=     -0.3615921036D+00
     beta-beta   T2 =       0.1870697295D-01 E2=     -0.6000879177D-01
 ANorm=    0.1071786238D+01
 E2 =    -0.4816096871D+00 EUMP2 =    -0.57509022230135D+03
          IDoAtm=1111111
          Differentiating once with respect to electric field.
                with respect to dipole field.
          Differentiating once with respect to nuclear coordinates.
 Keep R1 ints in memory in canonical form, NReq=3354447.
          There are     1 degrees of freedom in the 1st order CPHF.  IDoFFX=0 NUNeed=     1.
 LinEq1:  Iter=  0 NonCon=     1 RMS=3.91D-03 Max=2.50D-02 NDo=     1
 AX will form     1 AO Fock derivatives at one time.
 LinEq1:  Iter=  1 NonCon=     1 RMS=9.29D-04 Max=9.02D-03 NDo=     1
 LinEq1:  Iter=  2 NonCon=     1 RMS=2.42D-04 Max=2.00D-03 NDo=     1
 LinEq1:  Iter=  3 NonCon=     1 RMS=8.10D-05 Max=7.14D-04 NDo=     1
 LinEq1:  Iter=  4 NonCon=     1 RMS=1.94D-05 Max=1.16D-04 NDo=     1
 LinEq1:  Iter=  5 NonCon=     1 RMS=4.30D-06 Max=3.51D-05 NDo=     1
 LinEq1:  Iter=  6 NonCon=     1 RMS=9.86D-07 Max=6.78D-06 NDo=     1
 LinEq1:  Iter=  7 NonCon=     1 RMS=1.81D-07 Max=1.05D-06 NDo=     1
 LinEq1:  Iter=  8 NonCon=     1 RMS=3.97D-08 Max=3.13D-07 NDo=     1
 LinEq1:  Iter=  9 NonCon=     1 RMS=6.85D-09 Max=4.76D-08 NDo=     1
 LinEq1:  Iter= 10 NonCon=     1 RMS=1.53D-09 Max=1.10D-08 NDo=     1
 LinEq1:  Iter= 11 NonCon=     1 RMS=2.34D-10 Max=1.55D-09 NDo=     1
 LinEq1:  Iter= 12 NonCon=     0 RMS=3.63D-11 Max=2.16D-10 NDo=     1
 Linear equations converged to 1.000D-10 1.000D-09 after    12 iterations.
 End of Minotr F.D. properties file   721 does not exist.
 End of Minotr F.D. properties file   722 does not exist.
 End of Minotr F.D. properties file   788 does not exist.
 Calling FoFJK, ICntrl=  10002127 FMM=F ISym2X=0 I1Cent= 0 IOpClX= 0 NMat=1 NMatS=1 NMatT=0.
 ***** Axes restored to original set *****
 -------------------------------------------------------------------
 Center     Atomic                   Forces (Hartrees/Bohr)
 Number     Number              X              Y              Z
 -------------------------------------------------------------------
      1       17           0.002757182   -0.000913720    0.001053092
      2        6          -0.019417411   -0.014249739    0.002311824
      3        1          -0.002843193   -0.004991698   -0.003685408
      4        1           0.002890246    0.008274356    0.009718487
      5        1           0.017555274    0.001503211   -0.010560012
      6        8           0.013553454    0.028567630    0.005675179
      7        1          -0.014495553   -0.018190040   -0.004513162
 -------------------------------------------------------------------
 Cartesian Forces:  Max     0.028567630 RMS     0.011604953

 GradGradGradGradGradGradGradGradGradGradGradGradGradGradGradGradGradGrad
 Berny optimization.
 Using GEDIIS/GDIIS optimizer.
 FormGI is forming the generalized inverse of G from B-inverse, IUseBI=4.
 Internal  Forces:  Max     0.022338796 RMS     0.009678055
 Search for a local minimum.
 Step number   3 out of a maximum of   30
 All quantities printed in internal units (Hartrees-Bohrs-Radians)
 Mixed Optimization -- RFO/linear search
 Update second derivatives using D2CorX and points    2    3
 DE= -8.79D-03 DEPred=-9.97D-03 R= 8.81D-01
 TightC=F SS=  1.41D+00  RLast= 1.40D+00 DXNew= 8.4853D-01 4.1889D+00
 Trust test= 8.81D-01 RLast= 1.40D+00 DXMaxT set to 8.49D-01
 The second derivative matrix:
                          R1        R2        R3        R4        R5
           R1           0.02050
           R2           0.00911   0.37112
           R3           0.01907   0.08037   0.52679
           R4          -0.01382  -0.06011  -0.13759   0.43373
           R5           0.02048   0.09788   0.21018  -0.15571   0.63279
           R6          -0.01214  -0.06368  -0.14002   0.11167  -0.14654
           A1           0.00653   0.01964   0.05422  -0.04288   0.07080
           A2          -0.01215  -0.04544  -0.10947   0.08344  -0.13116
           A3           0.00520   0.02315   0.05019  -0.03669   0.05578
           A4          -0.01730  -0.07343  -0.16521   0.12294  -0.18845
           A5          -0.00491  -0.01193  -0.03928   0.03323  -0.05490
           A6           0.02145   0.08169   0.19676  -0.15057   0.23492
           A7           0.01029   0.07331   0.14102  -0.10765   0.12861
           A8           0.00045   0.00779   0.00572   0.00231   0.00036
           D1          -0.00696  -0.02871  -0.06637   0.04988  -0.07726
           D2           0.01475   0.06032   0.13939  -0.10367   0.16352
           D3           0.00297   0.00867   0.02049  -0.01219   0.02833
           D4           0.00227   0.00511   0.01513  -0.01081   0.02220
           D5          -0.00687  -0.03198  -0.07066   0.05300  -0.07855
           D6           0.00363   0.01108   0.02888  -0.02134   0.03790
                          R6        A1        A2        A3        A4
           R6           0.65653
           A1          -0.05328   0.17041
           A2           0.09074  -0.02862   0.21984
           A3          -0.03401   0.01584  -0.02874   0.17245
           A4           0.12186  -0.04934   0.09669  -0.04385   0.30739
           A5           0.04771  -0.00555   0.02048  -0.01231   0.03640
           A6          -0.16461   0.05231  -0.11221   0.05397  -0.17668
           A7          -0.09541   0.06608  -0.09956   0.03199  -0.12166
           A8           0.02090   0.00446  -0.00570   0.00222  -0.00670
           D1           0.05140  -0.01891   0.04079  -0.01940   0.06126
           D2          -0.10503   0.03860  -0.08758   0.04286  -0.13122
           D3          -0.00768   0.00182  -0.01150   0.00845  -0.02169
           D4          -0.01237   0.00084  -0.00638   0.00495  -0.01425
           D5           0.05237  -0.02283   0.04663  -0.02093   0.06588
           D6          -0.02348   0.00504  -0.01531   0.00905  -0.02707
                          A5        A6        A7        A8        D1
           A5           0.16203
           A6          -0.03657   0.36459
           A7          -0.06148   0.17876   0.29219
           A8          -0.00175   0.00816  -0.02703   0.16860
           D1           0.01271  -0.07119  -0.05348  -0.00289   0.02544
           D2          -0.02384   0.14924   0.11198   0.00925  -0.04726
           D3           0.00299   0.01754   0.01728   0.01122  -0.00636
           D4           0.00140   0.01195   0.02050   0.00570  -0.00536
           D5           0.01628  -0.07944  -0.04868  -0.00010   0.02415
           D6          -0.00155   0.02718   0.03144   0.00562  -0.01000
                          D2        D3        D4        D5        D6
           D2           0.09714
           D3           0.01341   0.00781
           D4           0.01177   0.00215   0.01249
           D5          -0.04816  -0.00654  -0.00704   0.03591
           D6           0.02090   0.00304   0.00121  -0.01169   0.01570
 ITU=  1  1  0
 Use linear search instead of GDIIS.
     Eigenvalues ---    0.00092   0.00413   0.01885   0.08076   0.08752
     Eigenvalues ---    0.09969   0.13301   0.15928   0.19139   0.26871
     Eigenvalues ---    0.33449   0.33811   0.37551   0.53236   1.68131
 RFO step:  Lambda=-3.63509708D-03 EMin= 9.21160793D-04
 Quartic linear search produced a step of -0.01014.
 Iteration  1 RMS(Cart)=  0.07363583 RMS(Int)=  0.00773320
 Iteration  2 RMS(Cart)=  0.00692709 RMS(Int)=  0.00018042
 Iteration  3 RMS(Cart)=  0.00005961 RMS(Int)=  0.00017037
 Iteration  4 RMS(Cart)=  0.00000001 RMS(Int)=  0.00017037
 Variable       Old X    -DE/DX   Delta X   Delta X   Delta X     New X
                                 (Linear)    (Quad)   (Total)
    R1        5.10715  -0.00045   0.00075   0.00861   0.00935   5.11651
    R2        2.11475  -0.00388  -0.00028   0.00700   0.00671   2.12146
    R3        2.10797  -0.01109  -0.00028   0.00243   0.00215   2.11013
    R4        2.05835   0.01301   0.00025   0.01012   0.01037   2.06872
    R5        2.70143  -0.00962   0.00012   0.00107   0.00119   2.70262
    R6        1.82398   0.02234   0.00004   0.02397   0.02400   1.84799
    A1        1.90995  -0.00668  -0.00091   0.00524   0.00388   1.91383
    A2        1.80087   0.00837   0.00117  -0.01397  -0.01282   1.78805
    A3        1.97214  -0.00074  -0.00019   0.02510   0.02464   1.99678
    A4        1.89665   0.00709   0.00065  -0.02743  -0.02684   1.86981
    A5        1.84991   0.00830   0.00093   0.01704   0.01770   1.86762
    A6        2.03239  -0.01638  -0.00162  -0.00783  -0.00939   2.02300
    A7        2.02381  -0.01484   0.00094  -0.04567  -0.04473   1.97908
    A8        1.70601   0.01179   0.00094   0.04667   0.04761   1.75362
    D1       -1.40967   0.00182   0.00723  -0.09440  -0.08721  -1.49688
    D2        2.91890  -0.00831   0.00602  -0.06646  -0.06055   2.85835
    D3        0.72213   0.00215   0.00700  -0.05120  -0.04405   0.67809
    D4        1.41128   0.00226  -0.00452   0.21713   0.21294   1.62421
    D5       -0.68034   0.00546  -0.00389   0.18515   0.18100  -0.49933
    D6       -2.79155   0.00048  -0.00429   0.21249   0.20812  -2.58343
         Item               Value     Threshold  Converged?
 Maximum Force            0.022339     0.000015     NO 
 RMS     Force            0.009678     0.000010     NO 
 Maximum Displacement     0.222003     0.000060     NO 
 RMS     Displacement     0.073534     0.000040     NO 
 Predicted change in Energy=-2.049302D-03
 GradGradGradGradGradGradGradGradGradGradGradGradGradGradGradGradGradGrad

                          Input orientation:                          
 ---------------------------------------------------------------------
 Center     Atomic      Atomic             Coordinates (Angstroms)
 Number     Number       Type             X           Y           Z
 ---------------------------------------------------------------------
      1         17           0       -0.919802   -1.852951   -0.266291
      2          6           0        1.251790    0.612504    0.162786
      3          1           0        1.000575    0.907359    1.216470
      4          1           0        0.315830    0.549711   -0.442938
      5          1           0        1.811841    1.481108   -0.198163
      6          8           0        1.912402   -0.650373    0.044048
      7          1           0        1.145425   -1.239177   -0.102131
 ---------------------------------------------------------------------
                    Distance matrix (angstroms):
                    1          2          3          4          5
     1  Cl   0.000000
     2  C    3.313364   0.000000
     3  H    3.675015   1.122630   0.000000
     4  H    2.707540   1.116631   1.830416   0.000000
     5  H    4.310738   1.094721   1.728736   1.779175   0.000000
     6  O    3.092553   1.430163   2.152331   2.055821   2.147554
     7  H    2.160747   1.873558   2.523352   2.001124   2.802371
                    6          7
     6  O    0.000000
     7  H    0.977912   0.000000
 Stoichiometry    CH4ClO(1-)
 Framework group  C1[X(CH4ClO)]
 Deg. of freedom    15
 Full point group                 C1      NOp   1
 Largest Abelian subgroup         C1      NOp   1
 Largest concise Abelian subgroup C1      NOp   1
                         Standard orientation:                         
 ---------------------------------------------------------------------
 Center     Atomic      Atomic             Coordinates (Angstroms)
 Number     Number       Type             X           Y           Z
 ---------------------------------------------------------------------
      1         17           0       -1.582594    0.054811    0.002325
      2          6           0        1.689595    0.575511   -0.003537
      3          1           0        1.812811    1.029359    1.015844
      4          1           0        0.859046    1.088862   -0.545314
      5          1           0        2.622603    0.857695   -0.501817
      6          8           0        1.383225   -0.821428    0.004620
      7          1           0        0.406257   -0.789350   -0.023969
 ---------------------------------------------------------------------
 Rotational constants (GHZ):     25.4477433      3.0705055      2.7881174
 Standard basis: CC-pVDZ (5D, 7F)
 There are    69 symmetry adapted cartesian basis functions of A   symmetry.
 There are    66 symmetry adapted basis functions of A   symmetry.
    66 basis functions,   165 primitive gaussians,    69 cartesian basis functions
    18 alpha electrons       18 beta electrons
       nuclear repulsion energy        91.4918725581 Hartrees.
 NAtoms=    7 NActive=    7 NUniq=    7 SFac= 1.00D+00 NAtFMM=   60 NAOKFM=F Big=F
 Integral buffers will be    131072 words long.
 Raffenetti 1 integral format.
 Two-electron integral symmetry is turned on.
 One-electron integrals computed using PRISM.
 NBasis=    66 RedAO= T EigKep=  1.72D-02  NBF=    66
 NBsUse=    66 1.00D-06 EigRej= -1.00D+00 NBFU=    66
 Initial guess from the checkpoint file:  "/localscratch/rjackson.18103347.0/Gau-37007.chk"
 B after Tr=     0.000000    0.000000    0.000000
         Rot=    0.999984    0.002069   -0.000470    0.005256 Ang=   0.65 deg.
 ExpMin= 1.22D-01 ExpMax= 1.28D+05 ExpMxC= 1.24D+03 IAcc=3 IRadAn=         5 AccDes= 0.00D+00
 Harris functional with IExCor=  205 and IRadAn=       5 diagonalized for initial guess.
 HarFok:  IExCor=  205 AccDes= 0.00D+00 IRadAn=         5 IDoV= 1 UseB2=F ITyADJ=14
 ICtDFT=  3500011 ScaDFX=  1.000000  1.000000  1.000000  1.000000
 FoFCou: FMM=F IPFlag=           0 FMFlag=      100000 FMFlg1=           0
         NFxFlg=           0 DoJE=T BraDBF=F KetDBF=T FulRan=T
         wScrn=  0.000000 ICntrl=     500 IOpCl=  0 I1Cent=   200000004 NGrid=           0
         NMat0=    1 NMatS0=      1 NMatT0=    0 NMatD0=    1 NMtDS0=    0 NMtDT0=    0
 Petite list used in FoFCou.
 Keep R1 ints in memory in canonical form, NReq=3412386.
 Requested convergence on RMS density matrix=1.00D-08 within 256 cycles.
 Requested convergence on MAX density matrix=1.00D-06.
 Requested convergence on             energy=1.00D-06.
 No special actions if energy rises.
 SCF Done:  E(RHF) =  -574.609289334     A.U. after   11 cycles
            NFock= 11  Conv=0.55D-08     -V/T= 2.0003
 ExpMin= 1.22D-01 ExpMax= 1.28D+05 ExpMxC= 1.24D+03 IAcc=3 IRadAn=         7 AccDes= 0.00D+00
 HarFok:  IExCor=  205 AccDes= 0.00D+00 IRadAn=         7 IDoV=-2 UseB2=F ITyADJ=14
 ICtDFT= 12500011 ScaDFX=  1.000000  1.000000  1.000000  1.000000
 Range of M.O.s used for correlation:     8    66
 NBasis=    66 NAE=    18 NBE=    18 NFC=     7 NFV=     0
 NROrb=     59 NOA=    11 NOB=    11 NVA=    48 NVB=    48
 Fully direct method using O(ONN) memory.
 JobTyp=1 Pass  1:  I=   8 to  18 NPSUse=  1 ParTrn=F ParDer=F DoDerP=T.
 Spin components of T(2) and E(2):
     alpha-alpha T2 =       0.1882378180D-01 E2=     -0.6021217296D-01
     alpha-beta  T2 =       0.1118574300D+00 E2=     -0.3623824673D+00
     beta-beta   T2 =       0.1882378180D-01 E2=     -0.6021217296D-01
 ANorm=    0.1072149707D+01
 E2 =    -0.4828068132D+00 EUMP2 =    -0.57509209614697D+03
          IDoAtm=1111111
          Differentiating once with respect to electric field.
                with respect to dipole field.
          Differentiating once with respect to nuclear coordinates.
 Keep R1 ints in memory in canonical form, NReq=3354827.
          There are     1 degrees of freedom in the 1st order CPHF.  IDoFFX=0 NUNeed=     1.
 LinEq1:  Iter=  0 NonCon=     1 RMS=3.99D-03 Max=3.23D-02 NDo=     1
 AX will form     1 AO Fock derivatives at one time.
 LinEq1:  Iter=  1 NonCon=     1 RMS=9.45D-04 Max=9.14D-03 NDo=     1
 LinEq1:  Iter=  2 NonCon=     1 RMS=2.51D-04 Max=1.83D-03 NDo=     1
 LinEq1:  Iter=  3 NonCon=     1 RMS=8.30D-05 Max=7.33D-04 NDo=     1
 LinEq1:  Iter=  4 NonCon=     1 RMS=2.02D-05 Max=1.25D-04 NDo=     1
 LinEq1:  Iter=  5 NonCon=     1 RMS=4.46D-06 Max=3.64D-05 NDo=     1
 LinEq1:  Iter=  6 NonCon=     1 RMS=9.93D-07 Max=6.83D-06 NDo=     1
 LinEq1:  Iter=  7 NonCon=     1 RMS=1.80D-07 Max=1.02D-06 NDo=     1
 LinEq1:  Iter=  8 NonCon=     1 RMS=4.09D-08 Max=3.17D-07 NDo=     1
 LinEq1:  Iter=  9 NonCon=     1 RMS=7.40D-09 Max=4.65D-08 NDo=     1
 LinEq1:  Iter= 10 NonCon=     1 RMS=1.76D-09 Max=1.00D-08 NDo=     1
 LinEq1:  Iter= 11 NonCon=     1 RMS=2.97D-10 Max=2.06D-09 NDo=     1
 LinEq1:  Iter= 12 NonCon=     0 RMS=5.12D-11 Max=4.10D-10 NDo=     1
 Linear equations converged to 1.000D-10 1.000D-09 after    12 iterations.
 End of Minotr F.D. properties file   721 does not exist.
 End of Minotr F.D. properties file   722 does not exist.
 End of Minotr F.D. properties file   788 does not exist.
 Calling FoFJK, ICntrl=  10002127 FMM=F ISym2X=0 I1Cent= 0 IOpClX= 0 NMat=1 NMatS=1 NMatT=0.
 ***** Axes restored to original set *****
 -------------------------------------------------------------------
 Center     Atomic                   Forces (Hartrees/Bohr)
 Number     Number              X              Y              Z
 -------------------------------------------------------------------
      1       17           0.001571688   -0.001822046   -0.001036615
      2        6          -0.016974109   -0.012413339   -0.000171155
      3        1          -0.002504964   -0.008588499   -0.004593793
      4        1           0.003438520    0.005675097    0.010977252
      5        1           0.016349937   -0.000754645   -0.009096250
      6        8           0.007707080    0.024665120    0.003529915
      7        1          -0.009588152   -0.006761689    0.000390645
 -------------------------------------------------------------------
 Cartesian Forces:  Max     0.024665120 RMS     0.009470356

 GradGradGradGradGradGradGradGradGradGradGradGradGradGradGradGradGradGrad
 Berny optimization.
 Using GEDIIS/GDIIS optimizer.
 FormGI is forming the generalized inverse of G from B-inverse, IUseBI=4.
 Internal  Forces:  Max     0.017003665 RMS     0.007884410
 Search for a local minimum.
 Step number   4 out of a maximum of   30
 All quantities printed in internal units (Hartrees-Bohrs-Radians)
 Mixed Optimization -- RFO/linear search
 Update second derivatives using D2CorX and points    3    4
 DE= -1.87D-03 DEPred=-2.05D-03 R= 9.14D-01
 TightC=F SS=  1.41D+00  RLast= 3.76D-01 DXNew= 1.4270D+00 1.1290D+00
 Trust test= 9.14D-01 RLast= 3.76D-01 DXMaxT set to 1.13D+00
 The second derivative matrix:
                          R1        R2        R3        R4        R5
           R1           0.02089
           R2           0.00772   0.36754
           R3           0.01778   0.06574   0.48780
           R4          -0.01259  -0.04256  -0.09228   0.38123
           R5           0.01628   0.09031   0.17329  -0.11102   0.61852
           R6          -0.01256  -0.02937  -0.06481   0.02602  -0.05536
           A1           0.00658   0.01110   0.03526  -0.02126   0.04815
           A2          -0.01054  -0.03640  -0.08153   0.05055  -0.10950
           A3           0.00380   0.02677   0.05172  -0.03758   0.06724
           A4          -0.01667  -0.06472  -0.14268   0.09683  -0.16632
           A5          -0.00378  -0.00073  -0.00873  -0.00236  -0.02685
           A6           0.01963   0.05781   0.13442  -0.07826   0.17431
           A7           0.01137   0.04933   0.09220  -0.05254   0.06379
           A8          -0.00240   0.03007   0.04234  -0.03780   0.06309
           D1          -0.00640  -0.02396  -0.05303   0.03430  -0.06548
           D2           0.01287   0.05238   0.11266  -0.07200   0.14513
           D3           0.00144   0.01083   0.01812  -0.00856   0.03613
           D4           0.00100   0.00850   0.01679  -0.01193   0.03290
           D5          -0.00758  -0.02296  -0.05375   0.03412  -0.05376
           D6           0.00221   0.01354   0.02765  -0.01906   0.04632
                          R6        A1        A2        A3        A4
           R6           0.53082
           A1          -0.02127   0.16227
           A2           0.03220  -0.01394   0.20092
           A3          -0.02724   0.01430  -0.03215   0.17726
           A4           0.07918  -0.03856   0.08035  -0.04433   0.29440
           A5          -0.01208   0.00951  -0.00122  -0.01392   0.01871
           A6          -0.04592   0.02236  -0.06715   0.05562  -0.14072
           A7          -0.01927   0.04659  -0.06026   0.02486  -0.09418
           A8          -0.02256   0.01587  -0.03846   0.01442  -0.02676
           D1           0.02484  -0.01223   0.03143  -0.02033   0.05352
           D2          -0.04679   0.02403  -0.07002   0.04726  -0.11551
           D3           0.00661  -0.00162  -0.01213   0.01342  -0.01993
           D4          -0.00672  -0.00044  -0.00968   0.00931  -0.01485
           D5           0.02824  -0.01660   0.03248  -0.01733   0.05645
           D6          -0.01180   0.00225  -0.01665   0.01376  -0.02598
                          A5        A6        A7        A8        D1
           A5           0.13812
           A6           0.01236   0.26503
           A7          -0.02243   0.10215   0.24785
           A8          -0.03164   0.06452  -0.00649   0.17236
           D1           0.00229  -0.04979  -0.03600  -0.01657   0.02091
           D2          -0.00318   0.10597   0.07229   0.04374  -0.03840
           D3           0.00442   0.01297   0.00526   0.02709  -0.00597
           D4          -0.00028   0.01388   0.01434   0.01656  -0.00630
           D5           0.00265  -0.05307  -0.03542  -0.00405   0.01800
           D6          -0.00098   0.02445   0.02123   0.01983  -0.00997
                          D2        D3        D4        D5        D6
           D2           0.08112
           D3           0.01514   0.01255
           D4           0.01596   0.00669   0.01646
           D5          -0.03363  -0.00125  -0.00388   0.03231
           D6           0.02326   0.00763   0.00550  -0.00707   0.02012
 ITU=  1  1  1  0
 Use linear search instead of GDIIS.
     Eigenvalues ---    0.00071   0.01151   0.01816   0.06706   0.08487
     Eigenvalues ---    0.08972   0.13585   0.15861   0.19425   0.26679
     Eigenvalues ---    0.32732   0.33831   0.38625   0.51072   1.27663
 RFO step:  Lambda=-6.07031386D-03 EMin= 7.05552318D-04
 Quartic linear search produced a step of  0.01889.
 Iteration  1 RMS(Cart)=  0.18212414 RMS(Int)=  0.06266346
 Iteration  2 RMS(Cart)=  0.08496951 RMS(Int)=  0.00550198
 Iteration  3 RMS(Cart)=  0.00714729 RMS(Int)=  0.00228197
 Iteration  4 RMS(Cart)=  0.00003047 RMS(Int)=  0.00228187
 Iteration  5 RMS(Cart)=  0.00000004 RMS(Int)=  0.00228187
 Variable       Old X    -DE/DX   Delta X   Delta X   Delta X     New X
                                 (Linear)    (Quad)   (Total)
    R1        5.11651   0.00083   0.00018   0.17463   0.17481   5.29131
    R2        2.12146  -0.00601   0.00013  -0.00825  -0.00812   2.11334
    R3        2.11013  -0.00981   0.00004   0.00762   0.00766   2.11779
    R4        2.06872   0.01076   0.00020   0.02589   0.02609   2.09481
    R5        2.70262  -0.01700   0.00002   0.03240   0.03242   2.73504
    R6        1.84799   0.01153   0.00045   0.03330   0.03376   1.88174
    A1        1.91383  -0.00409   0.00007  -0.06690  -0.07151   1.84232
    A2        1.78805   0.00944  -0.00024   0.04318   0.04192   1.82997
    A3        1.99678  -0.00496   0.00047   0.04478   0.04383   2.04061
    A4        1.86981   0.00601  -0.00051  -0.08019  -0.07819   1.79162
    A5        1.86762   0.00766   0.00033   0.14939   0.14908   2.01670
    A6        2.02300  -0.01366  -0.00018  -0.10848  -0.10521   1.91780
    A7        1.97908  -0.00548  -0.00084   0.06673   0.06589   2.04497
    A8        1.75362  -0.00110   0.00090   0.16473   0.16563   1.91925
    D1       -1.49688   0.00173  -0.00165  -0.38823  -0.38718  -1.88407
    D2        2.85835  -0.01030  -0.00114  -0.36751  -0.37179   2.48656
    D3        0.67809  -0.00196  -0.00083  -0.27818  -0.27857   0.39952
    D4        1.62421  -0.00160   0.00402  -0.05699  -0.04894   1.57528
    D5       -0.49933   0.00125   0.00342  -0.10845  -0.11012  -0.60946
    D6       -2.58343  -0.00348   0.00393  -0.04745  -0.04245  -2.62587
         Item               Value     Threshold  Converged?
 Maximum Force            0.017004     0.000015     NO 
 RMS     Force            0.007884     0.000010     NO 
 Maximum Displacement     0.518062     0.000060     NO 
 RMS     Displacement     0.251474     0.000040     NO 
 Predicted change in Energy=-4.542241D-03
 GradGradGradGradGradGradGradGradGradGradGradGradGradGradGradGradGradGrad

                          Input orientation:                          
 ---------------------------------------------------------------------
 Center     Atomic      Atomic             Coordinates (Angstroms)
 Number     Number       Type             X           Y           Z
 ---------------------------------------------------------------------
      1         17           0       -1.071893   -1.857331   -0.540437
      2          6           0        1.230896    0.616936    0.192339
      3          1           0        1.139736    1.019010    1.231903
      4          1           0        0.190492    0.621900   -0.224157
      5          1           0        1.726366    1.425037   -0.382390
      6          8           0        1.962085   -0.621588    0.030607
      7          1           0        1.340378   -1.395783    0.105915
 ---------------------------------------------------------------------
                    Distance matrix (angstroms):
                    1          2          3          4          5
     1  Cl   0.000000
     2  C    3.458584   0.000000
     3  H    4.038049   1.118332   0.000000
     4  H    2.800043   1.120685   1.782939   0.000000
     5  H    4.316153   1.108526   1.764917   1.740395   0.000000
     6  O    3.325384   1.447321   2.193384   2.179384   2.101143
     7  H    2.539656   2.017546   2.671953   2.345684   2.888676
                    6          7
     6  O    0.000000
     7  H    0.995775   0.000000
 Stoichiometry    CH4ClO(1-)
 Framework group  C1[X(CH4ClO)]
 Deg. of freedom    15
 Full point group                 C1      NOp   1
 Largest Abelian subgroup         C1      NOp   1
 Largest concise Abelian subgroup C1      NOp   1
                         Standard orientation:                         
 ---------------------------------------------------------------------
 Center     Atomic      Atomic             Coordinates (Angstroms)
 Number     Number       Type             X           Y           Z
 ---------------------------------------------------------------------
      1         17           0       -1.683208    0.042441   -0.003270
      2          6           0        1.727823    0.613732    0.013861
      3          1           0        2.104544    1.042949    0.975381
      4          1           0        0.837007    1.234450   -0.263792
      5          1           0        2.478611    0.913587   -0.744582
      6          8           0        1.528515   -0.819113   -0.030527
      7          1           0        0.599317   -1.041979    0.249637
 ---------------------------------------------------------------------
 Rotational constants (GHZ):     23.7007154      2.7324913      2.4902046
 Standard basis: CC-pVDZ (5D, 7F)
 There are    69 symmetry adapted cartesian basis functions of A   symmetry.
 There are    66 symmetry adapted basis functions of A   symmetry.
    66 basis functions,   165 primitive gaussians,    69 cartesian basis functions
    18 alpha electrons       18 beta electrons
       nuclear repulsion energy        87.6220594832 Hartrees.
 NAtoms=    7 NActive=    7 NUniq=    7 SFac= 1.00D+00 NAtFMM=   60 NAOKFM=F Big=F
 Integral buffers will be    131072 words long.
 Raffenetti 1 integral format.
 Two-electron integral symmetry is turned on.
 One-electron integrals computed using PRISM.
 NBasis=    66 RedAO= T EigKep=  1.79D-02  NBF=    66
 NBsUse=    66 1.00D-06 EigRej= -1.00D+00 NBFU=    66
 Initial guess from the checkpoint file:  "/localscratch/rjackson.18103347.0/Gau-37007.chk"
 B after Tr=    -0.000000    0.000000    0.000000
         Rot=    0.999916   -0.008221   -0.004303   -0.009044 Ang=  -1.48 deg.
 ExpMin= 1.22D-01 ExpMax= 1.28D+05 ExpMxC= 1.24D+03 IAcc=3 IRadAn=         5 AccDes= 0.00D+00
 Harris functional with IExCor=  205 and IRadAn=       5 diagonalized for initial guess.
 HarFok:  IExCor=  205 AccDes= 0.00D+00 IRadAn=         5 IDoV= 1 UseB2=F ITyADJ=14
 ICtDFT=  3500011 ScaDFX=  1.000000  1.000000  1.000000  1.000000
 FoFCou: FMM=F IPFlag=           0 FMFlag=      100000 FMFlg1=           0
         NFxFlg=           0 DoJE=T BraDBF=F KetDBF=T FulRan=T
         wScrn=  0.000000 ICntrl=     500 IOpCl=  0 I1Cent=   200000004 NGrid=           0
         NMat0=    1 NMatS0=      1 NMatT0=    0 NMatD0=    1 NMtDS0=    0 NMtDT0=    0
 Petite list used in FoFCou.
 Keep R1 ints in memory in canonical form, NReq=3411339.
 Requested convergence on RMS density matrix=1.00D-08 within 256 cycles.
 Requested convergence on MAX density matrix=1.00D-06.
 Requested convergence on             energy=1.00D-06.
 No special actions if energy rises.
 SCF Done:  E(RHF) =  -574.603594351     A.U. after   12 cycles
            NFock= 12  Conv=0.57D-08     -V/T= 2.0005
 ExpMin= 1.22D-01 ExpMax= 1.28D+05 ExpMxC= 1.24D+03 IAcc=3 IRadAn=         7 AccDes= 0.00D+00
 HarFok:  IExCor=  205 AccDes= 0.00D+00 IRadAn=         7 IDoV=-2 UseB2=F ITyADJ=14
 ICtDFT= 12500011 ScaDFX=  1.000000  1.000000  1.000000  1.000000
 Range of M.O.s used for correlation:     8    66
 NBasis=    66 NAE=    18 NBE=    18 NFC=     7 NFV=     0
 NROrb=     59 NOA=    11 NOB=    11 NVA=    48 NVB=    48
 Fully direct method using O(ONN) memory.
 JobTyp=1 Pass  1:  I=   8 to  18 NPSUse=  1 ParTrn=F ParDer=F DoDerP=T.
 Spin components of T(2) and E(2):
     alpha-alpha T2 =       0.1867533026D-01 E2=     -0.5958963550D-01
     alpha-beta  T2 =       0.1121978597D+00 E2=     -0.3617547533D+00
     beta-beta   T2 =       0.1867533026D-01 E2=     -0.5958963550D-01
 ANorm=    0.1072170005D+01
 E2 =    -0.4809340243D+00 EUMP2 =    -0.57508452837575D+03
          IDoAtm=1111111
          Differentiating once with respect to electric field.
                with respect to dipole field.
          Differentiating once with respect to nuclear coordinates.
 Keep R1 ints in memory in canonical form, NReq=3353262.
          There are     1 degrees of freedom in the 1st order CPHF.  IDoFFX=0 NUNeed=     1.
 LinEq1:  Iter=  0 NonCon=     1 RMS=3.95D-03 Max=3.13D-02 NDo=     1
 AX will form     1 AO Fock derivatives at one time.
 LinEq1:  Iter=  1 NonCon=     1 RMS=9.52D-04 Max=9.41D-03 NDo=     1
 LinEq1:  Iter=  2 NonCon=     1 RMS=2.49D-04 Max=2.33D-03 NDo=     1
 LinEq1:  Iter=  3 NonCon=     1 RMS=8.36D-05 Max=8.40D-04 NDo=     1
 LinEq1:  Iter=  4 NonCon=     1 RMS=2.04D-05 Max=1.38D-04 NDo=     1
 LinEq1:  Iter=  5 NonCon=     1 RMS=4.81D-06 Max=4.21D-05 NDo=     1
 LinEq1:  Iter=  6 NonCon=     1 RMS=1.12D-06 Max=8.27D-06 NDo=     1
 LinEq1:  Iter=  7 NonCon=     1 RMS=2.22D-07 Max=1.58D-06 NDo=     1
 LinEq1:  Iter=  8 NonCon=     1 RMS=4.64D-08 Max=3.07D-07 NDo=     1
 LinEq1:  Iter=  9 NonCon=     1 RMS=7.44D-09 Max=4.14D-08 NDo=     1
 LinEq1:  Iter= 10 NonCon=     1 RMS=1.71D-09 Max=1.05D-08 NDo=     1
 LinEq1:  Iter= 11 NonCon=     1 RMS=3.09D-10 Max=2.72D-09 NDo=     1
 LinEq1:  Iter= 12 NonCon=     0 RMS=5.84D-11 Max=5.33D-10 NDo=     1
 Linear equations converged to 1.000D-10 1.000D-09 after    12 iterations.
 End of Minotr F.D. properties file   721 does not exist.
 End of Minotr F.D. properties file   722 does not exist.
 End of Minotr F.D. properties file   788 does not exist.
 Calling FoFJK, ICntrl=  10002127 FMM=F ISym2X=0 I1Cent= 0 IOpClX= 0 NMat=1 NMatS=1 NMatT=0.
 ***** Axes restored to original set *****
 -------------------------------------------------------------------
 Center     Atomic                   Forces (Hartrees/Bohr)
 Number     Number              X              Y              Z
 -------------------------------------------------------------------
      1       17           0.003353546   -0.001565997    0.002243543
      2        6          -0.010666519   -0.006397057   -0.011852277
      3        1           0.004932656   -0.010454220    0.000168131
      4        1           0.009857973   -0.013281657    0.005380000
      5        1           0.009477209   -0.005061860    0.000494359
      6        8          -0.011141033    0.011257944    0.008952506
      7        1          -0.005813833    0.025502847   -0.005386263
 -------------------------------------------------------------------
 Cartesian Forces:  Max     0.025502847 RMS     0.009536859

 GradGradGradGradGradGradGradGradGradGradGradGradGradGradGradGradGradGrad
 Berny optimization.
 Using GEDIIS/GDIIS optimizer.
 FormGI is forming the generalized inverse of G from B-inverse, IUseBI=4.
 Internal  Forces:  Max     0.040421672 RMS     0.016817946
 Search for a local minimum.
 Step number   5 out of a maximum of   30
 All quantities printed in internal units (Hartrees-Bohrs-Radians)
[...]
 Spin components of T(2) and E(2):
     alpha-alpha T2 =       0.1874200049D-01 E2=     -0.6022251288D-01
     alpha-beta  T2 =       0.1112991397D+00 E2=     -0.3620195038D+00
     beta-beta   T2 =       0.1874200049D-01 E2=     -0.6022251288D-01
 ANorm=    0.1071813016D+01
 E2 =    -0.4824645295D+00 EUMP2 =    -0.57509712148283D+03
          IDoAtm=1111111
          Differentiating once with respect to electric field.
                with respect to dipole field.
          Differentiating once with respect to nuclear coordinates.
 Keep R1 ints in memory in canonical form, NReq=3355118.
          There are     1 degrees of freedom in the 1st order CPHF.  IDoFFX=0 NUNeed=     1.
 LinEq1:  Iter=  0 NonCon=     1 RMS=3.94D-03 Max=3.56D-02 NDo=     1
 AX will form     1 AO Fock derivatives at one time.
 LinEq1:  Iter=  1 NonCon=     1 RMS=9.27D-04 Max=8.63D-03 NDo=     1
 LinEq1:  Iter=  2 NonCon=     1 RMS=2.49D-04 Max=1.89D-03 NDo=     1
 LinEq1:  Iter=  3 NonCon=     1 RMS=8.26D-05 Max=6.80D-04 NDo=     1
 LinEq1:  Iter=  4 NonCon=     1 RMS=2.01D-05 Max=1.68D-04 NDo=     1
 LinEq1:  Iter=  5 NonCon=     1 RMS=4.48D-06 Max=3.94D-05 NDo=     1
 LinEq1:  Iter=  6 NonCon=     1 RMS=9.28D-07 Max=8.34D-06 NDo=     1
 LinEq1:  Iter=  7 NonCon=     1 RMS=1.68D-07 Max=1.26D-06 NDo=     1
 LinEq1:  Iter=  8 NonCon=     1 RMS=3.68D-08 Max=3.21D-07 NDo=     1
 LinEq1:  Iter=  9 NonCon=     1 RMS=6.73D-09 Max=5.83D-08 NDo=     1
 LinEq1:  Iter= 10 NonCon=     1 RMS=1.55D-09 Max=1.24D-08 NDo=     1
 LinEq1:  Iter= 11 NonCon=     1 RMS=2.45D-10 Max=2.58D-09 NDo=     1
 LinEq1:  Iter= 12 NonCon=     0 RMS=3.66D-11 Max=2.04D-10 NDo=     1
 Linear equations converged to 1.000D-10 1.000D-09 after    12 iterations.
 End of Minotr F.D. properties file   721 does not exist.
 End of Minotr F.D. properties file   722 does not exist.
 End of Minotr F.D. properties file   788 does not exist.
 Calling FoFJK, ICntrl=  10002127 FMM=F ISym2X=0 I1Cent= 0 IOpClX= 0 NMat=1 NMatS=1 NMatT=0.
 ***** Axes restored to original set *****
 -------------------------------------------------------------------
 Center     Atomic                   Forces (Hartrees/Bohr)
 Number     Number              X              Y              Z
 -------------------------------------------------------------------
      1       17           0.000000005    0.000000135   -0.000000158
      2        6          -0.000005744    0.000001312    0.000002413
      3        1           0.000000354   -0.000000273   -0.000000631
      4        1           0.000002708   -0.000001353    0.000000603
      5        1           0.000002081   -0.000000507   -0.000001338
      6        8          -0.000004196   -0.000002117   -0.000001009
      7        1           0.000004792    0.000002804    0.000000120
 -------------------------------------------------------------------
 Cartesian Forces:  Max     0.000005744 RMS     0.000002299

 GradGradGradGradGradGradGradGradGradGradGradGradGradGradGradGradGradGrad
 Berny optimization.
 Using GEDIIS/GDIIS optimizer.
 FormGI is forming the generalized inverse of G from B-inverse, IUseBI=4.
 Internal  Forces:  Max     0.000005478 RMS     0.000001647
 Search for a local minimum.
 Step number  26 out of a maximum of   30
 All quantities printed in internal units (Hartrees-Bohrs-Radians)
 Mixed Optimization -- En-DIIS/RFO-DIIS
 Swapping is turned off.
 Update second derivatives using D2CorX and points   19   18   20   21   22
                                                     23   24   25   26
 DE= -3.85D-09 DEPred=-2.13D-09 R= 1.80D+00
 Trust test= 1.80D+00 RLast= 2.15D-03 DXMaxT set to 6.06D-01
 The second derivative matrix:
                          R1        R2        R3        R4        R5
           R1           0.01738
           R2          -0.00117   0.33941
           R3           0.00767  -0.00061   0.35648
           R4          -0.00181   0.00182  -0.00046   0.34787
           R5          -0.01130   0.01317   0.00710   0.02961   0.43789
           R6           0.00163   0.00005  -0.00572  -0.01735  -0.00920
           A1          -0.00038   0.00266  -0.00217  -0.00625  -0.00470
           A2           0.00405   0.00880   0.01897  -0.00683  -0.00327
           A3           0.00332  -0.00222  -0.01161  -0.00547   0.01120
           A4          -0.00598   0.00064  -0.00415   0.00927  -0.03759
           A5           0.01067  -0.01161   0.01562   0.00992   0.02535
           A6          -0.01190   0.00292  -0.01673   0.00024   0.00609
           A7           0.05680  -0.00419   0.04967  -0.00301  -0.04261
           A8          -0.01639   0.00404  -0.00857   0.02030   0.09695
           D1           0.00391  -0.00963  -0.01734   0.01595  -0.01247
           D2           0.01151   0.00881   0.03051  -0.01563   0.03026
           D3           0.01529   0.00823   0.00700   0.00099  -0.01321
           D4           0.00704   0.00055   0.00584   0.00037   0.00322
           D5          -0.00124  -0.00932  -0.00744   0.00035   0.00310
           D6          -0.00278   0.00673  -0.00304  -0.00125   0.01166
                          R6        A1        A2        A3        A4
           R6           0.42192
           A1          -0.00462   0.14721
           A2          -0.00675  -0.00297   0.13497
           A3           0.00847  -0.01041   0.00527   0.13728
           A4           0.00830   0.02439  -0.01238   0.03776   0.12522
           A5          -0.00287  -0.00824   0.01613  -0.01958  -0.01896
           A6          -0.00361   0.01328   0.01622   0.01406  -0.00030
           A7           0.02289  -0.00597   0.01218   0.00391  -0.05908
           A8           0.02858  -0.01374  -0.00617   0.00375  -0.01128
           D1           0.01065   0.00072   0.00852  -0.00979   0.01892
           D2          -0.00265   0.00036  -0.01224   0.00436  -0.02438
           D3           0.01446  -0.00972   0.00761   0.02810  -0.01409
           D4           0.00539  -0.00209   0.00565   0.00467  -0.00496
           D5          -0.00375  -0.00453   0.00052  -0.00619   0.02473
           D6          -0.00341   0.00530   0.00004   0.01125  -0.00245
                          A5        A6        A7        A8        D1
           A5           0.19868
           A6          -0.01058   0.12871
           A7           0.09835  -0.05472   0.30703
           A8           0.02961  -0.00379   0.00723   0.30419
           D1          -0.00634  -0.00866   0.01017   0.01063   0.01980
           D2           0.01231   0.01773   0.04192   0.01559  -0.00026
           D3           0.03762  -0.05317   0.07530   0.02724   0.00413
           D4           0.01152  -0.01573   0.01457   0.00200   0.00173
           D5          -0.02164   0.01045  -0.04885  -0.01640   0.01105
           D6          -0.01534   0.00126  -0.03032   0.01185  -0.00176
                          D2        D3        D4        D5        D6
           D2           0.04475
           D3           0.01390   0.06406
           D4           0.01058   0.02172   0.02024
           D5           0.00460  -0.01629  -0.00276   0.03778
           D6           0.00659   0.00900   0.00345   0.00009   0.02291
 ITU=  0  0  0  0  1  1  1 -1  0  1 -1  1  1  1  1  1  1  1  1  0
 ITU=  1
     Eigenvalues ---    0.00030   0.00589   0.04976   0.07782   0.08612
     Eigenvalues ---    0.12237   0.13427   0.16810   0.24243   0.32854
     Eigenvalues ---    0.33811   0.34313   0.42717   0.48270   0.51229
 En-DIIS/RFO-DIIS IScMMF=        0 using points:    26   25   24   23   22
 RFO step:  Lambda=-1.00272689D-10.
 DidBck=F Rises=F RFO-DIIS coefs:    1.21487   -0.23874   -0.04926    0.11422   -0.04109
 Iteration  1 RMS(Cart)=  0.00001257 RMS(Int)=  0.00000000
 Iteration  2 RMS(Cart)=  0.00000000 RMS(Int)=  0.00000000
 Variable       Old X    -DE/DX   Delta X   Delta X   Delta X     New X
                                 (Linear)    (Quad)   (Total)
    R1        6.43178  -0.00000  -0.00011   0.00007  -0.00003   6.43174
    R2        2.09910  -0.00000  -0.00000  -0.00000  -0.00000   2.09909
    R3        2.09910  -0.00000  -0.00001  -0.00000  -0.00001   2.09909
    R4        2.09470   0.00000   0.00000   0.00000   0.00000   2.09470
    R5        2.64614  -0.00000  -0.00000   0.00001   0.00000   2.64615
    R6        1.88688  -0.00001  -0.00001  -0.00000  -0.00001   1.88687
    A1        1.85334   0.00000   0.00001   0.00000   0.00001   1.85335
    A2        1.87666   0.00000   0.00001   0.00000   0.00001   1.87667
    A3        1.97807   0.00000   0.00000   0.00000   0.00000   1.97808
    A4        1.87667   0.00000   0.00001  -0.00000   0.00000   1.87667
    A5        1.97809  -0.00000  -0.00001   0.00000  -0.00001   1.97808
    A6        1.89597  -0.00000  -0.00001  -0.00000  -0.00002   1.89595
    A7        1.44522   0.00000   0.00003  -0.00002   0.00001   1.44524
    A8        1.80606   0.00000   0.00000   0.00000   0.00000   1.80606
    D1       -1.29746   0.00000  -0.00001   0.00001  -0.00000  -1.29746
    D2        2.98095  -0.00000  -0.00003   0.00001  -0.00002   2.98093
    D3        0.88527   0.00000  -0.00001   0.00002   0.00001   0.88528
    D4        1.05697   0.00000   0.00003  -0.00003  -0.00000   1.05697
    D5       -1.05694  -0.00000   0.00002  -0.00004  -0.00002  -1.05695
    D6       -3.14159   0.00000   0.00003  -0.00003   0.00000  -3.14159
         Item               Value     Threshold  Converged?
 Maximum Force            0.000005     0.000015     YES
 RMS     Force            0.000002     0.000010     YES
 Maximum Displacement     0.000030     0.000060     YES
 RMS     Displacement     0.000013     0.000040     YES
 Predicted change in Energy=-1.175357D-10
 Optimization completed.
    -- Stationary point found.
                           ----------------------------
                           !   Optimized Parameters   !
                           ! (Angstroms and Degrees)  !
 --------------------------                            --------------------------
 ! Name  Definition              Value          Derivative Info.                !
 --------------------------------------------------------------------------------
 ! R1    R(1,4)                  3.4035         -DE/DX =    0.0                 !
 ! R2    R(2,3)                  1.1108         -DE/DX =    0.0                 !
 ! R3    R(2,4)                  1.1108         -DE/DX =    0.0                 !
 ! R4    R(2,5)                  1.1085         -DE/DX =    0.0                 !
 ! R5    R(2,6)                  1.4003         -DE/DX =    0.0                 !
 ! R6    R(6,7)                  0.9985         -DE/DX =    0.0                 !
 ! A1    A(3,2,4)              106.1887         -DE/DX =    0.0                 !
 ! A2    A(3,2,5)              107.5245         -DE/DX =    0.0                 !
 ! A3    A(3,2,6)              113.3352         -DE/DX =    0.0                 !
 ! A4    A(4,2,5)              107.5252         -DE/DX =    0.0                 !
 ! A5    A(4,2,6)              113.336          -DE/DX =    0.0                 !
 ! A6    A(5,2,6)              108.6312         -DE/DX =    0.0                 !
 ! A7    A(1,4,2)               82.8053         -DE/DX =    0.0                 !
 ! A8    A(2,6,7)              103.4795         -DE/DX =    0.0                 !
 ! D1    D(3,2,4,1)            -74.3392         -DE/DX =    0.0                 !
 ! D2    D(5,2,4,1)            170.7956         -DE/DX =    0.0                 !
 ! D3    D(6,2,4,1)             50.7224         -DE/DX =    0.0                 !
 ! D4    D(3,2,6,7)             60.56           -DE/DX =    0.0                 !
 ! D5    D(4,2,6,7)            -60.558          -DE/DX =    0.0                 !
 ! D6    D(5,2,6,7)           -179.9997         -DE/DX =    0.0                 !
 --------------------------------------------------------------------------------
 GradGradGradGradGradGradGradGradGradGradGradGradGradGradGradGradGradGrad

                          Input orientation:                          
 ---------------------------------------------------------------------
 Center     Atomic      Atomic             Coordinates (Angstroms)
 Number     Number       Type             X           Y           Z
 ---------------------------------------------------------------------
      1         17           0       -0.784131   -2.134243    0.061874
      2          6           0        1.236089    0.656359    0.109587
      3          1           0        0.787482    0.691280    1.125163
      4          1           0        0.436824    0.974515   -0.593137
      5          1           0        2.037390    1.421354    0.072170
      6          8           0        1.791332   -0.589030   -0.208993
      7          1           0        1.013074   -1.212055   -0.152883
 ---------------------------------------------------------------------
                    Distance matrix (angstroms):
                    1          2          3          4          5
     1  Cl   0.000000
     2  C    3.445435   0.000000
     3  H    3.403547   1.110794   0.000000
     4  H    3.403549   1.110796   1.776440   0.000000
     5  H    4.539092   1.108468   1.789993   1.790003   0.000000
     6  O    3.015636   1.400279   2.104015   2.104027   2.044808
     7  H    2.031378   1.899894   2.303688   2.303687   2.834557
                    6          7
     6  O    0.000000
     7  H    0.998496   0.000000
 Stoichiometry    CH4ClO(1-)
 Framework group  C1[X(CH4ClO)]
 Deg. of freedom    15
 Full point group                 C1      NOp   1
 Largest Abelian subgroup         C1      NOp   1
 Largest concise Abelian subgroup C1      NOp   1
                         Standard orientation:                         
 ---------------------------------------------------------------------
 Center     Atomic      Atomic             Coordinates (Angstroms)
 Number     Number       Type             X           Y           Z
 ---------------------------------------------------------------------
      1         17           0       -1.608460    0.070618    0.000000
      2          6           0        1.808666    0.511381   -0.000001
      3          1           0        1.509264    1.107435    0.888223
      4          1           0        1.509263    1.107450   -0.888217
      5          1           0        2.915154    0.445150    0.000006
      6          8           0        1.282830   -0.786416   -0.000000
      7          1           0        0.295501   -0.637499   -0.000012
 ---------------------------------------------------------------------
 Rotational constants (GHZ):     28.5970724      2.9704860      2.7373209

 **********************************************************************

            Population analysis using the SCF density.

 **********************************************************************

 Orbital symmetries:
       Occupied  (A) (A) (A) (A) (A) (A) (A) (A) (A) (A) (A) (A)
                 (A) (A) (A) (A) (A) (A)
       Virtual   (A) (A) (A) (A) (A) (A) (A) (A) (A) (A) (A) (A)
                 (A) (A) (A) (A) (A) (A) (A) (A) (A) (A) (A) (A)
                 (A) (A) (A) (A) (A) (A) (A) (A) (A) (A) (A) (A)
                 (A) (A) (A) (A) (A) (A) (A) (A) (A) (A) (A) (A)
 The electronic state is 1-A.
 Alpha  occ. eigenvalues -- -104.50294 -20.35901 -11.11845 -10.22580  -7.69230
 Alpha  occ. eigenvalues --   -7.69176  -7.69173  -1.16468  -0.75009  -0.74017
 Alpha  occ. eigenvalues --   -0.50274  -0.44108  -0.41324  -0.32667  -0.25912
 Alpha  occ. eigenvalues --   -0.16142  -0.15777  -0.15772
 Alpha virt. eigenvalues --    0.34235   0.40164   0.41973   0.47375   0.57764
 Alpha virt. eigenvalues --    0.78979   0.79254   0.87787   0.95392   1.00199
 Alpha virt. eigenvalues --    1.02275   1.04276   1.04576   1.07448   1.10528
 Alpha virt. eigenvalues --    1.21518   1.26322   1.28468   1.28912   1.29867
 Alpha virt. eigenvalues --    1.29955   1.32329   1.35775   1.43146   1.51705
 Alpha virt. eigenvalues --    1.53055   1.68539   1.79715   1.83004   1.84005
 Alpha virt. eigenvalues --    2.02125   2.06427   2.09410   2.10785   2.22556
 Alpha virt. eigenvalues --    2.33185   2.47815   2.49539   2.57036   2.73484
 Alpha virt. eigenvalues --    2.88036   2.88387   2.92086   3.48736   3.57398
 Alpha virt. eigenvalues --    3.65498   3.76431   4.25638
          Condensed to atoms (all electrons):
               1          2          3          4          5          6
     1  Cl  17.862031   0.000241   0.004568   0.004568   0.000212  -0.030687
     2  C    0.000241   4.306880   0.406859   0.406859   0.394293   0.340670
     3  H    0.004568   0.406859   0.722385  -0.044698  -0.043189  -0.033395
     4  H    0.004568   0.406859  -0.044698   0.722384  -0.043188  -0.033394
     5  H    0.000212   0.394293  -0.043189  -0.043188   0.747593  -0.029896
     6  O   -0.030687   0.340670  -0.033395  -0.033394  -0.029896   7.883432
     7  H    0.061869  -0.045476  -0.002664  -0.002664   0.006409   0.362044
               7
     1  Cl   0.061869
     2  C   -0.045476
     3  H   -0.002664
     4  H   -0.002664
     5  H    0.006409
     6  O    0.362044
     7  H    0.396611
 Mulliken charges:
               1
     1  Cl  -0.902802
     2  C    0.189674
     3  H   -0.009867
     4  H   -0.009867
     5  H   -0.032234
     6  O   -0.458775
     7  H    0.223871
 Sum of Mulliken charges =  -1.00000
 Mulliken charges with hydrogens summed into heavy atoms:
               1
     1  Cl  -0.902802
     2  C    0.137706
     6  O   -0.234904
 Electronic spatial extent (au):  <R**2>=            437.9340
 Charge=             -1.0000 electrons
 Dipole moment (field-independent basis, Debye):
    X=              4.6439    Y=              1.1943    Z=             -0.0000  Tot=              4.7950
 Quadrupole moment (field-independent basis, Debye-Ang):
   XX=            -43.2342   YY=            -30.6668   ZZ=            -29.2805
   XY=              3.3653   XZ=              0.0000   YZ=              0.0000
 Traceless Quadrupole moment (field-independent basis, Debye-Ang):
   XX=             -8.8403   YY=              3.7270   ZZ=              5.1133
   XY=              3.3653   XZ=              0.0000   YZ=              0.0000
 Octapole moment (field-independent basis, Debye-Ang**2):
  XXX=             19.9676  YYY=             -2.1392  ZZZ=              0.0000  XYY=             -0.7293
  XXY=              1.8271  XXZ=              0.0001  XZZ=              2.0246  YZZ=             -0.8206
  YYZ=             -0.0000  XYZ=             -0.0000
 Hexadecapole moment (field-independent basis, Debye-Ang**3):
 XXXX=           -520.2165 YYYY=            -75.5333 ZZZZ=            -38.1801 XXXY=             -0.4224
 XXXZ=              0.0002 YYYX=             -1.0952 YYYZ=             -0.0000 ZZZX=              0.0000
 ZZZY=              0.0000 XXYY=            -99.0924 XXZZ=            -89.4273 YYZZ=            -18.7314
 XXYZ=              0.0000 YYXZ=             -0.0000 ZZXY=             -0.9790
 N-N= 9.148901814578D+01 E-N=-1.558005279296D+03  KE= 5.745113093915D+02
 1\1\GINC-CDR674\FOpt\RMP2-FC\CC-pVDZ\C1H4Cl1O1(1-)\RJACKSON\12-Mar-201
 9\0\\# mp2/cc-PVDZ opt(tight) integral(grid=superfine) scf(maxcyc=256)
 \\OH-chloromethane_reactant\\-1,1\Cl,-0.7841306431,-2.1342431792,0.061
 8740108\C,1.2360885642,0.6563592019,0.1095871787\H,0.7874820901,0.6912
 800484,1.1251633964\H,0.4368240666,0.9745147324,-0.593137094\H,2.03739
 04672,1.4213535818,0.0721695747\O,1.7913315772,-0.5890295342,-0.208993
 3258\H,1.0130738779,-1.2120548509,-0.1528827408\\Version=EM64L-G09RevE
 .01\State=1-A\HF=-574.614657\MP2=-575.0971215\RMSD=7.621e-09\RMSF=2.29
 9e-06\Dipole=0.915932,1.5417739,0.0672126\PG=C01 [X(C1H4Cl1O1)]\\@


 SCIENCE IS LONG AND LIFE IS SHORT.

                     DON MOSER IN THE FEBRUARY 1979 SMITHSONIAN
 Job cpu time:       0 days  0 hours  2 minutes 59.5 seconds.
 File lengths (MBytes):  RWF=      5 Int=      0 D2E=      0 Chk=      2 Scr=      1
 Normal termination of Gaussian 09 at Tue Mar 12 02:19:20 2019.
