 Entering Gaussian System, Link 0=g09
 Initial command:
 /opt/software/gaussian/g09.e01/l1.exe "/localscratch/rjackson.12297310.0/Gau-500.inp" -scrdir="/localscratch/rjackson.12297310.0/"
 Entering Link 1 = /opt/software/gaussian/g09.e01/l1.exe PID=       501.
  
 Copyright (c) 1988,1990,1992,1993,1995,1998,2003,2009,2015,
            Gaussian, Inc.  All Rights Reserved.
  
 This is part of the Gaussian(R) 09 program.  It is based on
 the Gaussian(R) 03 system (copyright 2003, Gaussian, Inc.),
 the Gaussian(R) 98 system (copyright 1998, Gaussian, Inc.),
 the Gaussian(R) 94 system (copyright 1995, Gaussian, Inc.),
 the Gaussian 92(TM) system (copyright 1992, Gaussian, Inc.),
 the Gaussian 90(TM) system (copyright 1990, Gaussian, Inc.),
 the Gaussian 88(TM) system (copyright 1988, Gaussian, Inc.),
 the Gaussian 86(TM) system (copyright 1986, Carnegie Mellon
 University), and the Gaussian 82(TM) system (copyright 1983,
 Carnegie Mellon University). Gaussian is a federally registered
 trademark of Gaussian, Inc.
  
 This software contains proprietary and confidential information,
 including trade secrets, belonging to Gaussian, Inc.
  
 This software is provided under written license and may be
 used, copied, transmitted, or stored only in accord with that
 written license.
  
 The following legend is applicable only to US Government
 contracts under FAR:
  
                    RESTRICTED RIGHTS LEGEND
  
 Use, reproduction and disclosure by the US Government is
 subject to restrictions as set forth in subparagraphs (a)
 and (c) of the Commercial Computer Software - Restricted
 Rights clause in FAR 52.227-19.
  
 Gaussian, Inc.
 340 Quinnipiac St., Bldg. 40, Wallingford CT 06492
  
  
 ---------------------------------------------------------------
 Warning -- This program may not be used in any manner that
 competes with the business of Gaussian, Inc. or will provide
 assistance to any competitor of Gaussian, Inc.  The licensee
 of this program is prohibited from giving any competitor of
 Gaussian, Inc. access to this program.  By using this program,
 the user acknowledges that Gaussian, Inc. is engaged in the
 business of creating and licensing software in the field of
 computational chemistry and represents and warrants to the
 licensee that it is not a competitor of Gaussian, Inc. and that
 it will not use this program in any manner prohibited above.
 ---------------------------------------------------------------
  

 Cite this work as:
 Gaussian 09, Revision E.01,
 M. J. Frisch, G. W. Trucks, H. B. Schlegel, G. E. Scuseria, 
 M. A. Robb, J. R. Cheeseman, G. Scalmani, V. Barone, B. Mennucci, 
 G. A. Petersson, H. Nakatsuji, M. Caricato, X. Li, H. P. Hratchian, 
 A. F. Izmaylov, J. Bloino, G. Zheng, J. L. Sonnenberg, M. Hada, 
 M. Ehara, K. Toyota, R. Fukuda, J. Hasegawa, M. Ishida, T. Nakajima, 
 Y. Honda, O. Kitao, H. Nakai, T. Vreven, J. A. Montgomery, Jr., 
 J. E. Peralta, F. Ogliaro, M. Bearpark, J. J. Heyd, E. Brothers, 
 K. N. Kudin, V. N. Staroverov, T. Keith, R. Kobayashi, J. Normand, 
 K. Raghavachari, A. Rendell, J. C. Burant, S. S. Iyengar, J. Tomasi, 
 M. Cossi, N. Rega, J. M. Millam, M. Klene, J. E. Knox, J. B. Cross, 
 V. Bakken, C. Adamo, J. Jaramillo, R. Gomperts, R. E. Stratmann, 
 O. Yazyev, A. J. Austin, R. Cammi, C. Pomelli, J. W. Ochterski, 
 R. L. Martin, K. Morokuma, V. G. Zakrzewski, G. A. Voth, 
 P. Salvador, J. J. Dannenberg, S. Dapprich, A. D. Daniels, 
 O. Farkas, J. B. Foresman, J. V. Ortiz, J. Cioslowski, 
 and D. J. Fox, Gaussian, Inc., Wallingford CT, 2013.
 
 ******************************************
 Gaussian 09:  EM64L-G09RevE.01 30-Nov-2015
                 5-Mar-2019 
 ******************************************
 ----------------------------------------------------------------------
 # mp2/cc-pVDZ opt(ts, calcfc, noeigen, tight) integral(grid=superfine)
  scf(maxcyc=256) freq
 ----------------------------------------------------------------------
 1/5=1,7=10,10=4,11=1,18=20,38=1/1,3;
 2/9=110,12=2,17=6,18=5,40=1/2;
 3/5=16,11=9,16=1,25=1,30=1,71=2,75=-7,140=1/1,2,3;
 4//1;
 5/5=2,7=256,38=5/2;
 8/6=3,8=1,10=1,19=11,30=-1/1;
 9/15=3,16=-3/6;
 11/6=1,8=1,15=11,17=12,24=-1,27=1,28=-2,29=300,32=6,42=3/1,2,10;
 10/6=2,21=1/2;
 8/6=4,8=1,10=1,19=11,30=-1/11,4;
 10/5=1,20=4/2;
 11/12=2,14=11,16=1,17=2,28=-2,42=3/2,10,12;
 6/7=2,8=2,9=2,10=2/1;
 7/10=1,12=2,25=1,44=2/1,2,3,16;
 1/5=1,7=10,10=4,11=1,18=20/3(2);
 2/9=110/2;
 99//99;
 2/9=110/2;
 3/5=16,11=9,16=1,25=1,30=1,71=1,75=-7/1,2,3;
 4/5=5,16=3,69=1/1;
 5/5=2,7=256,38=5/2;
 8/6=4,10=1/1;
 9/15=2,16=-3/6;
 10/5=1/2;
 7/12=2/1,2,3,16;
 1/5=1,7=10,11=1,18=20/3(-8);
 2/9=110/2;
 6/7=2,8=2,9=2,10=2/1;
 99//99;
 -------------------
 OH-chloromethane_ts
 -------------------
 Symbolic Z-matrix:
 Charge = -1 Multiplicity = 1
 Cl                   -1.65785   0.00004   0.00001 
 C                     0.39841  -0.01466  0. 
 H                     0.56615  -0.54597   0.92926 
 H                     0.56614  -0.54605  -0.92922 
 H                     0.58955   1.05247  -0.00005 
 O                     2.63176   0.11322  -0.00002 
 H                     3.01714  -0.77887   0.00002 
 
 Add virtual bond connecting atoms O6         and C2         Dist= 4.23D+00.
 Add virtual bond connecting atoms O6         and H3         Dist= 4.46D+00.
 Add virtual bond connecting atoms O6         and H4         Dist= 4.46D+00.
 Add virtual bond connecting atoms O6         and H5         Dist= 4.25D+00.

 GradGradGradGradGradGradGradGradGradGradGradGradGradGradGradGradGradGrad
 Berny optimization.
 Initialization pass.
                           ----------------------------
                           !    Initial Parameters    !
                           ! (Angstroms and Degrees)  !
 --------------------------                            --------------------------
 ! Name  Definition              Value          Derivative Info.                !
 --------------------------------------------------------------------------------
 ! R1    R(1,2)                  2.0563         calculate D2E/DX2 analytically  !
 ! R2    R(2,3)                  1.0835         calculate D2E/DX2 analytically  !
 ! R3    R(2,4)                  1.0835         calculate D2E/DX2 analytically  !
 ! R4    R(2,5)                  1.0841         calculate D2E/DX2 analytically  !
 ! R5    R(2,6)                  2.237          calculate D2E/DX2 analytically  !
 ! R6    R(3,6)                  2.359          calculate D2E/DX2 analytically  !
 ! R7    R(4,6)                  2.359          calculate D2E/DX2 analytically  !
 ! R8    R(5,6)                  2.2478         calculate D2E/DX2 analytically  !
 ! R9    R(6,7)                  0.9718         calculate D2E/DX2 analytically  !
 ! A1    A(1,2,3)               99.1088         calculate D2E/DX2 analytically  !
 ! A2    A(1,2,4)               99.1089         calculate D2E/DX2 analytically  !
 ! A3    A(1,2,5)               99.745          calculate D2E/DX2 analytically  !
 ! A4    A(3,2,4)              118.1043         calculate D2E/DX2 analytically  !
 ! A5    A(3,2,5)              117.0925         calculate D2E/DX2 analytically  !
 ! A6    A(4,2,5)              117.0924         calculate D2E/DX2 analytically  !
 ! A7    A(2,6,7)              110.0872         calculate D2E/DX2 analytically  !
 ! A8    A(3,6,4)               46.3965         calculate D2E/DX2 analytically  !
 ! A9    A(3,6,5)               47.2529         calculate D2E/DX2 analytically  !
 ! A10   A(3,6,7)               95.2049         calculate D2E/DX2 analytically  !
 ! A11   A(4,6,5)               47.2529         calculate D2E/DX2 analytically  !
 ! A12   A(4,6,7)               95.2049         calculate D2E/DX2 analytically  !
 ! A13   A(5,6,7)              138.0629         calculate D2E/DX2 analytically  !
 ! A14   L(1,2,6,3,-1)         181.8403         calculate D2E/DX2 analytically  !
 ! A15   L(1,2,6,3,-2)         183.2278         calculate D2E/DX2 analytically  !
 ! D1    D(3,2,5,4)            148.8758         calculate D2E/DX2 analytically  !
 ! D2    D(4,3,6,2)             33.1403         calculate D2E/DX2 analytically  !
 ! D3    D(5,3,6,2)            -33.5238         calculate D2E/DX2 analytically  !
 ! D4    D(7,3,6,2)            125.3776         calculate D2E/DX2 analytically  !
 ! D5    D(5,4,6,2)             33.5238         calculate D2E/DX2 analytically  !
 ! D6    D(7,4,6,2)           -125.3776         calculate D2E/DX2 analytically  !
 ! D7    D(7,5,6,2)              0.0            calculate D2E/DX2 analytically  !
 --------------------------------------------------------------------------------
 Trust Radius=3.00D-01 FncErr=1.00D-07 GrdErr=1.00D-07
 Number of steps in this run=     41 maximum allowed number of steps=    100.
 Search for a saddle point of order  1.
 GradGradGradGradGradGradGradGradGradGradGradGradGradGradGradGradGradGrad

                          Input orientation:                          
 ---------------------------------------------------------------------
 Center     Atomic      Atomic             Coordinates (Angstroms)
 Number     Number       Type             X           Y           Z
 ---------------------------------------------------------------------
      1         17           0       -1.657852    0.000036    0.000008
      2          6           0        0.398411   -0.014663   -0.000001
      3          1           0        0.566149   -0.545967    0.929261
      4          1           0        0.566141   -0.546052   -0.929216
      5          1           0        0.589545    1.052467   -0.000051
      6          8           0        2.631756    0.113223   -0.000017
      7          1           0        3.017143   -0.778872    0.000022
 ---------------------------------------------------------------------
                    Distance matrix (angstroms):
                    1          2          3          4          5
     1  Cl   0.000000
     2  C    2.056316   0.000000
     3  H    2.471399   1.083489   0.000000
     4  H    2.471399   1.083489   1.858477   0.000000
     5  H    2.481613   1.084112   1.849097   1.849097   0.000000
     6  O    4.291101   2.237004   2.358987   2.358987   2.247845
     7  H    4.739438   2.727961   2.631559   2.631558   3.040894
                    6          7
     6  O    0.000000
     7  H    0.971780   0.000000
 Stoichiometry    CH4ClO(1-)
 Framework group  C1[X(CH4ClO)]
 Deg. of freedom    15
 Full point group                 C1      NOp   1
 Largest Abelian subgroup         C1      NOp   1
 Largest concise Abelian subgroup C1      NOp   1
                         Standard orientation:                         
 ---------------------------------------------------------------------
 Center     Atomic      Atomic             Coordinates (Angstroms)
 Number     Number       Type             X           Y           Z
 ---------------------------------------------------------------------
      1         17           0       -1.657852    0.000036    0.000008
      2          6           0        0.398411   -0.014663   -0.000001
      3          1           0        0.566149   -0.545967    0.929261
      4          1           0        0.566141   -0.546052   -0.929216
      5          1           0        0.589545    1.052467   -0.000051
      6          8           0        2.631756    0.113223   -0.000017
      7          1           0        3.017143   -0.778872    0.000022
 ---------------------------------------------------------------------
 Rotational constants (GHZ):    119.1886259      2.2957138      2.2878237
 Standard basis: CC-pVDZ (5D, 7F)
 There are    69 symmetry adapted cartesian basis functions of A   symmetry.
 There are    66 symmetry adapted basis functions of A   symmetry.
    66 basis functions,   165 primitive gaussians,    69 cartesian basis functions
    18 alpha electrons       18 beta electrons
       nuclear repulsion energy        88.3939756081 Hartrees.
 NAtoms=    7 NActive=    7 NUniq=    7 SFac= 1.00D+00 NAtFMM=   60 NAOKFM=F Big=F
 Integral buffers will be    131072 words long.
 Raffenetti 1 integral format.
 Two-electron integral symmetry is turned on.
 One-electron integrals computed using PRISM.
 NBasis=    66 RedAO= T EigKep=  2.10D-02  NBF=    66
 NBsUse=    66 1.00D-06 EigRej= -1.00D+00 NBFU=    66
 ExpMin= 1.22D-01 ExpMax= 1.28D+05 ExpMxC= 1.24D+03 IAcc=3 IRadAn=         7 AccDes= 0.00D+00
 Harris functional with IExCor=  205 and IRadAn=       7 diagonalized for initial guess.
 HarFok:  IExCor=  205 AccDes= 0.00D+00 IRadAn=         7 IDoV= 1 UseB2=F ITyADJ=14
 ICtDFT=  3500011 ScaDFX=  1.000000  1.000000  1.000000  1.000000
 FoFCou: FMM=F IPFlag=           0 FMFlag=      100000 FMFlg1=           0
         NFxFlg=           0 DoJE=T BraDBF=F KetDBF=T FulRan=T
         wScrn=  0.000000 ICntrl=     500 IOpCl=  0 I1Cent=   200000004 NGrid=           0
         NMat0=    1 NMatS0=      1 NMatT0=    0 NMatD0=    1 NMtDS0=    0 NMtDT0=    0
 Petite list used in FoFCou.
 Keep R1 ints in memory in canonical form, NReq=3411148.
 Requested convergence on RMS density matrix=1.00D-08 within 256 cycles.
 Requested convergence on MAX density matrix=1.00D-06.
 Requested convergence on             energy=1.00D-06.
 No special actions if energy rises.
 SCF Done:  E(RHF) =  -574.491071306     A.U. after   13 cycles
            NFock= 13  Conv=0.70D-08     -V/T= 2.0000
 ExpMin= 1.22D-01 ExpMax= 1.28D+05 ExpMxC= 1.24D+03 IAcc=3 IRadAn=         7 AccDes= 0.00D+00
 HarFok:  IExCor=  205 AccDes= 0.00D+00 IRadAn=         7 IDoV=-2 UseB2=F ITyADJ=14
 ICtDFT= 12500011 ScaDFX=  1.000000  1.000000  1.000000  1.000000
 Range of M.O.s used for correlation:     8    66
 NBasis=    66 NAE=    18 NBE=    18 NFC=     7 NFV=     0
 NROrb=     59 NOA=    11 NOB=    11 NVA=    48 NVB=    48
 Disk-based method using ON**2 memory for 11 occupieds at a time.
 Permanent disk used for amplitudes=      919080 words.
 Estimated scratch disk usage=     7097308 words.
 Actual    scratch disk usage=     7097308 words.
 JobTyp=1 Pass  1:  I=   8 to  18 NPSUse=  1 ParTrn=F ParDer=F DoDerP=T.
 (rs|ai) integrals will be sorted in core.
 Spin components of T(2) and E(2):
     alpha-alpha T2 =       0.2006456405D-01 E2=     -0.6074352029D-01
     alpha-beta  T2 =       0.1192798927D+00 E2=     -0.3668558483D+00
     beta-beta   T2 =       0.2006456405D-01 E2=     -0.6074352029D-01
 ANorm=    0.1076758571D+01
 E2 =    -0.4883428889D+00 EUMP2 =    -0.57497941419493D+03
 G2DrvN: will do     8 centers at a time, making    1 passes.
 Calling FoFCou, ICntrl=  3107 FMM=F I1Cent=   0 AccDes= 0.00D+00.
 End of G2Drv F.D. properties file   721 does not exist.
 End of G2Drv F.D. properties file   722 does not exist.
 End of G2Drv F.D. properties file   788 does not exist.
          IDoAtm=1111111
          Differentiating once with respect to electric field.
                with respect to dipole field.
          Differentiating once with respect to nuclear coordinates.
 Keep R1 ints in memory in canonical form, NReq=3351410.
          There are    24 degrees of freedom in the 1st order CPHF.  IDoFFX=6 NUNeed=    24.
     21 vectors produced by pass  0 Test12= 3.60D-15 4.17D-09 XBig12= 1.72D+01 2.58D+00.
 AX will form    21 AO Fock derivatives at one time.
     21 vectors produced by pass  1 Test12= 3.60D-15 4.17D-09 XBig12= 7.44D-01 2.12D-01.
     21 vectors produced by pass  2 Test12= 3.60D-15 4.17D-09 XBig12= 4.18D-02 5.25D-02.
     21 vectors produced by pass  3 Test12= 3.60D-15 4.17D-09 XBig12= 4.89D-04 4.12D-03.
     21 vectors produced by pass  4 Test12= 3.60D-15 4.17D-09 XBig12= 3.34D-06 3.42D-04.
     21 vectors produced by pass  5 Test12= 3.60D-15 4.17D-09 XBig12= 1.72D-08 2.32D-05.
     14 vectors produced by pass  6 Test12= 3.60D-15 4.17D-09 XBig12= 1.21D-10 2.05D-06.
      3 vectors produced by pass  7 Test12= 3.60D-15 4.17D-09 XBig12= 6.43D-13 1.58D-07.
      3 vectors produced by pass  8 Test12= 3.60D-15 4.17D-09 XBig12= 4.07D-15 1.45D-08.
 InvSVY:  IOpt=1 It=  1 EMax= 1.78D-15
 Solved reduced A of dimension   146 with    24 vectors.
 End of Minotr F.D. properties file   721 does not exist.
 End of Minotr F.D. properties file   722 does not exist.
 End of Minotr F.D. properties file   788 does not exist.
 MDV=    33554432.
 Form MO integral derivatives with frozen-active canonical formalism.
 Discarding MO integrals.
 Reordered first order wavefunction length =      1492992
 In DefCFB: NBatch=  1 ICI= 18 ICA= 48 LFMax= 18
            Large arrays: LIAPS=    15738624 LIARS=     7928928 words.
 Semi-Direct transformation.
 ModeAB=           4 MOrb=            18 LenV=      33289014
 LASXX=      2037645 LTotXX=     2037645 LenRXX=     4178286
 LTotAB=     2140641 MaxLAS=     2863080 LenRXY=           0
 NonZer=     6215931 LenScr=    10097152 LnRSAI=     2863080
 LnScr1=     5006848 LExtra=           0 Total=     22145366
 MaxDsk=          -1 SrtSym=           T ITran=            4
 JobTyp=0 Pass  1:  I=   1 to  18.
 (rs|ai) integrals will be sorted in core.
 SymMOI:  orbitals are not symmetric.
 Spin components of T(2) and E(2):
     alpha-alpha T2 =       0.2006456405D-01 E2=     -0.6074352029D-01
     alpha-beta  T2 =       0.1192798927D+00 E2=     -0.3668558483D+00
     beta-beta   T2 =       0.2006456405D-01 E2=     -0.6074352029D-01
 ANorm=    0.1522766575D+01
 E2 =    -0.4883428889D+00 EUMP2 =    -0.57497941419493D+03
          IDoAtm=1111111
          Differentiating once with respect to electric field.
                with respect to dipole field.
          Differentiating once with respect to nuclear coordinates.
          There are     1 degrees of freedom in the 1st order CPHF.  IDoFFX=0 NUNeed=     1.
 LinEq1:  Iter=  0 NonCon=     1 RMS=8.41D-03 Max=1.21D-01 NDo=     1
 LinEq1:  Iter=  1 NonCon=     1 RMS=2.05D-03 Max=2.27D-02 NDo=     1
 LinEq1:  Iter=  2 NonCon=     1 RMS=6.58D-04 Max=5.30D-03 NDo=     1
 LinEq1:  Iter=  3 NonCon=     1 RMS=2.23D-04 Max=2.55D-03 NDo=     1
 LinEq1:  Iter=  4 NonCon=     1 RMS=7.36D-05 Max=8.56D-04 NDo=     1
 LinEq1:  Iter=  5 NonCon=     1 RMS=1.82D-05 Max=1.86D-04 NDo=     1
 LinEq1:  Iter=  6 NonCon=     1 RMS=4.86D-06 Max=4.55D-05 NDo=     1
 LinEq1:  Iter=  7 NonCon=     1 RMS=1.06D-06 Max=9.20D-06 NDo=     1
 LinEq1:  Iter=  8 NonCon=     1 RMS=2.52D-07 Max=2.74D-06 NDo=     1
 LinEq1:  Iter=  9 NonCon=     1 RMS=5.78D-08 Max=7.36D-07 NDo=     1
 LinEq1:  Iter= 10 NonCon=     1 RMS=1.26D-08 Max=1.26D-07 NDo=     1
 LinEq1:  Iter= 11 NonCon=     1 RMS=2.04D-09 Max=1.92D-08 NDo=     1
 LinEq1:  Iter= 12 NonCon=     1 RMS=3.23D-10 Max=3.09D-09 NDo=     1
 LinEq1:  Iter= 13 NonCon=     0 RMS=5.56D-11 Max=5.31D-10 NDo=     1
 Linear equations converged to 1.000D-10 1.000D-09 after    13 iterations.
 End of Minotr F.D. properties file   721 does not exist.
 End of Minotr F.D. properties file   722 does not exist.
 End of Minotr F.D. properties file   788 does not exist.
 Symmetrizing basis deriv contribution to polar:
 IMax=3 JMax=2 DiffMx= 0.00D+00
 G2DrvN: will do     8 centers at a time, making    1 passes.
 Calling FoFCou, ICntrl=  3107 FMM=F I1Cent=   0 AccDes= 0.00D+00.
 End of G2Drv F.D. properties file   721 does not exist.
 End of G2Drv F.D. properties file   722 does not exist.
 End of G2Drv F.D. properties file   788 does not exist.
 R2 and R3 integrals will be kept in memory, NReq=     6654640.
 DD1Dir will call FoFMem   1 times, MxPair=       342
 NAB=   171 NAA=     0 NBB=     0.
 Discarding MO integrals.

 **********************************************************************

            Population analysis using the SCF density.

 **********************************************************************

 Orbital symmetries:
       Occupied  (A) (A) (A) (A) (A) (A) (A) (A) (A) (A) (A) (A)
                 (A) (A) (A) (A) (A) (A)
       Virtual   (A) (A) (A) (A) (A) (A) (A) (A) (A) (A) (A) (A)
                 (A) (A) (A) (A) (A) (A) (A) (A) (A) (A) (A) (A)
                 (A) (A) (A) (A) (A) (A) (A) (A) (A) (A) (A) (A)
                 (A) (A) (A) (A) (A) (A) (A) (A) (A) (A) (A) (A)
 The electronic state is 1-A.
 Alpha  occ. eigenvalues -- -104.59444 -20.19112 -11.13405 -10.32016  -7.78710
 Alpha  occ. eigenvalues --   -7.78518  -7.78518  -0.92922  -0.87268  -0.72604
 Alpha  occ. eigenvalues --   -0.43134  -0.42851  -0.29927  -0.25855  -0.23731
 Alpha  occ. eigenvalues --   -0.23523  -0.13664  -0.11773
 Alpha virt. eigenvalues --    0.34784   0.38649   0.42255   0.43003   0.46173
 Alpha virt. eigenvalues --    0.77446   0.78284   0.89618   0.97058   0.97378
 Alpha virt. eigenvalues --    1.00087   1.04004   1.04068   1.04151   1.11288
 Alpha virt. eigenvalues --    1.15520   1.17823   1.20944   1.21613   1.21620
 Alpha virt. eigenvalues --    1.34918   1.42126   1.45129   1.59894   1.61198
 Alpha virt. eigenvalues --    1.66220   1.71068   1.79462   1.85599   1.85990
 Alpha virt. eigenvalues --    2.01099   2.02971   2.06721   2.23568   2.25433
 Alpha virt. eigenvalues --    2.25476   2.56232   2.58627   2.59078   2.75050
 Alpha virt. eigenvalues --    2.97121   2.97650   2.98354   3.34286   3.44164
 Alpha virt. eigenvalues --    3.65168   3.65815   4.39081
          Condensed to atoms (all electrons):
               1          2          3          4          5          6
     1  Cl  17.618878   0.066938  -0.031921  -0.031921  -0.036742   0.002556
     2  C    0.066938   4.497233   0.419025   0.419025   0.429776   0.066078
     3  H   -0.031921   0.419025   0.562019  -0.021293  -0.015985   0.007922
     4  H   -0.031921   0.419025  -0.021293   0.562019  -0.015985   0.007922
     5  H   -0.036742   0.429776  -0.015985  -0.015985   0.541431  -0.002898
     6  O    0.002556   0.066078   0.007922   0.007922  -0.002898   8.454717
     7  H   -0.000363  -0.013721   0.000483   0.000483  -0.001670   0.297838
               7
     1  Cl  -0.000363
     2  C   -0.013721
     3  H    0.000483
     4  H    0.000483
     5  H   -0.001670
     6  O    0.297838
     7  H    0.672611
 Mulliken charges:
               1
     1  Cl  -0.587425
     2  C    0.115647
     3  H    0.079751
     4  H    0.079751
     5  H    0.102074
     6  O   -0.834137
     7  H    0.044338
 Sum of Mulliken charges =  -1.00000
 Mulliken charges with hydrogens summed into heavy atoms:
               1
     1  Cl  -0.587425
     2  C    0.377223
     6  O   -0.789798
 APT charges:
               1
     1  Cl  -1.094846
     2  C    1.239070
     3  H   -0.041752
     4  H   -0.041752
     5  H   -0.023603
     6  O   -0.990634
     7  H   -0.046482
 Sum of APT charges =  -1.00000
 APT charges with hydrogens summed into heavy atoms:
               1
     1  Cl  -1.094846
     2  C    1.131962
     6  O   -1.037116
 Electronic spatial extent (au):  <R**2>=            505.3036
 Charge=             -1.0000 electrons
 Dipole moment (field-independent basis, Debye):
    X=             -3.9071    Y=             -1.3337    Z=              0.0001  Tot=              4.1285
 Quadrupole moment (field-independent basis, Debye-Ang):
   XX=            -61.1879   YY=            -26.8858   ZZ=            -28.0712
   XY=             -4.2009   XZ=              0.0003   YZ=             -0.0000
 Traceless Quadrupole moment (field-independent basis, Debye-Ang):
   XX=            -22.4729   YY=             11.8292   ZZ=             10.6437
   XY=             -4.2009   XZ=              0.0003   YZ=             -0.0000
 Octapole moment (field-independent basis, Debye-Ang**2):
  XXX=            -48.6904  YYY=              0.3482  ZZZ=              0.0001  XYY=              4.4439
  XXY=            -12.7507  XXZ=              0.0008  XZZ=              1.0537  YZZ=             -0.9978
  YYZ=             -0.0001  XYZ=             -0.0001
 Hexadecapole moment (field-independent basis, Debye-Ang**3):
 XXXX=           -752.6930 YYYY=            -35.9404 ZZZZ=            -34.3826 XXXY=            -39.1960
 XXXZ=              0.0038 YYYX=             -1.7207 YYYZ=              0.0000 ZZZX=              0.0014
 ZZZY=              0.0001 XXYY=            -96.5834 XXZZ=           -105.6853 YYZZ=            -11.8542
 XXYZ=             -0.0002 YYXZ=              0.0004 ZZXY=             -0.8960
 N-N= 8.839397560810D+01 E-N=-1.551717497647D+03  KE= 5.744868389062D+02
  Exact polarizability:  82.158  -2.922  22.876  -0.000  -0.000  19.878
 Approx polarizability:  42.955  -1.071  20.898  -0.000  -0.000  17.629
 Calling FoFJK, ICntrl=  10100127 FMM=F ISym2X=0 I1Cent= 0 IOpClX= 0 NMat=1 NMatS=1 NMatT=0.
 ***** Axes restored to original set *****
 -------------------------------------------------------------------
 Center     Atomic                   Forces (Hartrees/Bohr)
 Number     Number              X              Y              Z
 -------------------------------------------------------------------
      1       17          -0.006807791   -0.000156455    0.000000021
      2        6           0.014999508   -0.001099774   -0.000000116
      3        1           0.001620342    0.000207728    0.000046109
      4        1           0.001620281    0.000207739   -0.000046058
      5        1           0.000551331    0.000018388    0.000000027
      6        8          -0.007726172    0.003935136   -0.000000145
      7        1          -0.004257499   -0.003112763    0.000000162
 -------------------------------------------------------------------
 Cartesian Forces:  Max     0.014999508 RMS     0.004260592
 FormGI is forming the generalized inverse of G from B-inverse, IUseBI=4.

 GradGradGradGradGradGradGradGradGradGradGradGradGradGradGradGradGradGrad
 Berny optimization.
 Internal  Forces:  Max     0.006806498 RMS     0.001968607
 Search for a saddle point.
 Step number   1 out of a maximum of   41
 All quantities printed in internal units (Hartrees-Bohrs-Radians)
 Swapping is turned off.
 Second derivative matrix not updated -- analytic derivatives used.
 ITU=  0
     Eigenvalues ---   -0.02102  -0.00008   0.00512   0.01168   0.01289
     Eigenvalues ---    0.01681   0.05197   0.05580   0.09105   0.09214
     Eigenvalues ---    0.10165   0.32181   0.35798   0.36058   0.50314
 Eigenvectors required to have negative eigenvalues:
                          D1        R5        R1        A1        A2
   1                   -0.53369   0.53048  -0.47447   0.17636   0.17636
                          A3        R8        R6        R7        A6
   1                    0.16220   0.14695   0.13424   0.13337  -0.10309
 RFO step:  Lambda0=3.319258022D-03 Lambda=-2.18820058D-03.
 Linear search not attempted -- option 19 set.
 Maximum step size (   0.300) exceeded in Quadratic search.
    -- Step size scaled by   0.603
 Iteration  1 RMS(Cart)=  0.04487421 RMS(Int)=  0.00324731
 Iteration  2 RMS(Cart)=  0.00198728 RMS(Int)=  0.00220733
 Iteration  3 RMS(Cart)=  0.00000144 RMS(Int)=  0.00220733
 Iteration  4 RMS(Cart)=  0.00000000 RMS(Int)=  0.00220733
 Variable       Old X    -DE/DX   Delta X   Delta X   Delta X     New X
                                 (Linear)    (Quad)   (Total)
    R1        3.88587   0.00681   0.00000  -0.10948  -0.10948   3.77639
    R2        2.04750   0.00063   0.00000   0.00151   0.00234   2.04983
    R3        2.04750   0.00059   0.00000   0.00150   0.00272   2.05021
    R4        2.04867   0.00063   0.00000   0.00382   0.00404   2.05272
    R5        4.22732  -0.00448   0.00000   0.12070   0.12158   4.34890
    R6        4.45784  -0.00297   0.00000  -0.05231  -0.05291   4.40493
    R7        4.45784  -0.00296   0.00000  -0.05264  -0.05323   4.40461
    R8        4.24781  -0.00183   0.00000   0.08246   0.08172   4.32954
    R9        1.83640   0.00117   0.00000   0.00230   0.00230   1.83870
    A1        1.72978  -0.00069   0.00000   0.06323   0.06318   1.79295
    A2        1.72978  -0.00069   0.00000   0.06328   0.06347   1.79325
    A3        1.74088  -0.00045   0.00000   0.05229   0.05263   1.79351
    A4        2.06131   0.00013   0.00000  -0.02603  -0.03482   2.02648
    A5        2.04365   0.00043   0.00000  -0.03529  -0.03894   2.00471
    A6        2.04365   0.00043   0.00000  -0.03529  -0.03897   2.00468
    A7        1.92138  -0.00236   0.00000  -0.09504  -0.09548   1.82591
    A8        0.80977   0.00086   0.00000   0.00403   0.00220   0.81197
    A9        0.82472   0.00088   0.00000  -0.00966  -0.01094   0.81378
   A10        1.66164  -0.00248   0.00000  -0.08608  -0.08521   1.57643
   A11        0.82472   0.00087   0.00000  -0.00962  -0.01084   0.81388
   A12        1.66164  -0.00247   0.00000  -0.08602  -0.08518   1.57645
   A13        2.40965  -0.00184   0.00000  -0.10597  -0.10618   2.30347
   A14        3.17371  -0.00028   0.00000  -0.01998  -0.01966   3.15405
   A15        3.19793  -0.00048   0.00000  -0.03399  -0.03386   3.16406
    D1        2.59837   0.00185   0.00000  -0.18569  -0.18064   2.41773
    D2        0.57841   0.00014   0.00000  -0.00487  -0.00635   0.57206
    D3       -0.58510  -0.00010   0.00000   0.00583   0.00443  -0.58067
    D4        2.18825  -0.00088   0.00000  -0.04179  -0.04294   2.14531
    D5        0.58510   0.00010   0.00000  -0.00588  -0.00451   0.58059
    D6       -2.18825   0.00087   0.00000   0.04197   0.04314  -2.14511
    D7       -0.00000  -0.00000   0.00000   0.00019   0.00018   0.00018
         Item               Value     Threshold  Converged?
 Maximum Force            0.006806     0.000015     NO 
 RMS     Force            0.001969     0.000010     NO 
 Maximum Displacement     0.133155     0.000060     NO 
 RMS     Displacement     0.044667     0.000040     NO 
 Predicted change in Energy= 4.720152D-04
 GradGradGradGradGradGradGradGradGradGradGradGradGradGradGradGradGradGrad

                          Input orientation:                          
 ---------------------------------------------------------------------
 Center     Atomic      Atomic             Coordinates (Angstroms)
 Number     Number       Type             X           Y           Z
 ---------------------------------------------------------------------
      1         17           0       -1.640197   -0.044957    0.000130
      2          6           0        0.357673    0.000251   -0.000007
      3          1           0        0.608479   -0.515928    0.920475
      4          1           0        0.608710   -0.516060   -0.920586
      5          1           0        0.573570    1.064830   -0.000028
      6          8           0        2.656377    0.110358   -0.000058
      7          1           0        2.946681   -0.818322    0.000080
 ---------------------------------------------------------------------
                    Distance matrix (angstroms):
                    1          2          3          4          5
     1  Cl   0.000000
     2  C    1.998381   0.000000
     3  H    2.474953   1.084726   0.000000
     4  H    2.475325   1.084926   1.841061   0.000000
     5  H    2.476367   1.086251   1.829573   1.829720   0.000000
     6  O    4.299380   2.301340   2.330987   2.330818   2.291091
     7  H    4.651617   2.715331   2.530960   2.530829   3.029508
                    6          7
     6  O    0.000000
     7  H    0.972998   0.000000
 Stoichiometry    CH4ClO(1-)
 Framework group  C1[X(CH4ClO)]
 Deg. of freedom    15
 Full point group                 C1      NOp   1
 Largest Abelian subgroup         C1      NOp   1
 Largest concise Abelian subgroup C1      NOp   1
                         Standard orientation:                         
 ---------------------------------------------------------------------
 Center     Atomic      Atomic             Coordinates (Angstroms)
 Number     Number       Type             X           Y           Z
 ---------------------------------------------------------------------
      1         17           0       -1.647555   -0.008384    0.000083
      2          6           0        0.350683    0.015524   -0.000054
      3          1           0        0.595972   -0.503298    0.920428
      4          1           0        0.596201   -0.503433   -0.920633
      5          1           0        0.577916    1.077742   -0.000075
      6          8           0        2.650430    0.101121   -0.000105
      7          1           0        2.930817   -0.830602    0.000033
 ---------------------------------------------------------------------
 Rotational constants (GHZ):    119.8478679      2.3011951      2.2928345
 Standard basis: CC-pVDZ (5D, 7F)
 There are    69 symmetry adapted cartesian basis functions of A   symmetry.
 There are    66 symmetry adapted basis functions of A   symmetry.
    66 basis functions,   165 primitive gaussians,    69 cartesian basis functions
    18 alpha electrons       18 beta electrons
       nuclear repulsion energy        88.8578408445 Hartrees.
 NAtoms=    7 NActive=    7 NUniq=    7 SFac= 1.00D+00 NAtFMM=   60 NAOKFM=F Big=F
 Integral buffers will be    131072 words long.
 Raffenetti 1 integral format.
 Two-electron integral symmetry is turned on.
 One-electron integrals computed using PRISM.
 NBasis=    66 RedAO= T EigKep=  2.03D-02  NBF=    66
 NBsUse=    66 1.00D-06 EigRej= -1.00D+00 NBFU=    66
 Initial guess from the checkpoint file:  "/localscratch/rjackson.12297310.0/Gau-501.chk"
 B after Tr=    -0.000000   -0.000000    0.000000
         Rot=    1.000000    0.000002   -0.000017    0.000354 Ang=   0.04 deg.
 ExpMin= 1.22D-01 ExpMax= 1.28D+05 ExpMxC= 1.24D+03 IAcc=3 IRadAn=         5 AccDes= 0.00D+00
 Harris functional with IExCor=  205 and IRadAn=       5 diagonalized for initial guess.
 HarFok:  IExCor=  205 AccDes= 0.00D+00 IRadAn=         5 IDoV= 1 UseB2=F ITyADJ=14
 ICtDFT=  3500011 ScaDFX=  1.000000  1.000000  1.000000  1.000000
 FoFCou: FMM=F IPFlag=           0 FMFlag=      100000 FMFlg1=           0
         NFxFlg=           0 DoJE=T BraDBF=F KetDBF=T FulRan=T
         wScrn=  0.000000 ICntrl=     500 IOpCl=  0 I1Cent=   200000004 NGrid=           0
         NMat0=    1 NMatS0=      1 NMatT0=    0 NMatD0=    1 NMtDS0=    0 NMtDT0=    0
 Petite list used in FoFCou.
 Keep R1 ints in memory in canonical form, NReq=3411205.
 Requested convergence on RMS density matrix=1.00D-08 within 256 cycles.
 Requested convergence on MAX density matrix=1.00D-06.
 Requested convergence on             energy=1.00D-06.
 No special actions if energy rises.
 SCF Done:  E(RHF) =  -574.489755014     A.U. after   12 cycles
            NFock= 12  Conv=0.97D-08     -V/T= 2.0000
 ExpMin= 1.22D-01 ExpMax= 1.28D+05 ExpMxC= 1.24D+03 IAcc=3 IRadAn=         7 AccDes= 0.00D+00
 HarFok:  IExCor=  205 AccDes= 0.00D+00 IRadAn=         7 IDoV=-2 UseB2=F ITyADJ=14
 ICtDFT= 12500011 ScaDFX=  1.000000  1.000000  1.000000  1.000000
 Range of M.O.s used for correlation:     8    66
 NBasis=    66 NAE=    18 NBE=    18 NFC=     7 NFV=     0
 NROrb=     59 NOA=    11 NOB=    11 NVA=    48 NVB=    48
 Fully direct method using O(ONN) memory.
 JobTyp=1 Pass  1:  I=   8 to  18 NPSUse=  1 ParTrn=F ParDer=F DoDerP=T.
 Spin components of T(2) and E(2):
     alpha-alpha T2 =       0.2012315844D-01 E2=     -0.6091603727D-01
     alpha-beta  T2 =       0.1191423702D+00 E2=     -0.3673308535D+00
     beta-beta   T2 =       0.2012315844D-01 E2=     -0.6091603727D-01
 ANorm=    0.1076749129D+01
 E2 =    -0.4891629280D+00 EUMP2 =    -0.57497891794234D+03
          IDoAtm=1111111
          Differentiating once with respect to electric field.
                with respect to dipole field.
          Differentiating once with respect to nuclear coordinates.
 Keep R1 ints in memory in canonical form, NReq=3353121.
          There are     1 degrees of freedom in the 1st order CPHF.  IDoFFX=0 NUNeed=     1.
 LinEq1:  Iter=  0 NonCon=     1 RMS=8.16D-03 Max=1.22D-01 NDo=     1
 AX will form     1 AO Fock derivatives at one time.
 LinEq1:  Iter=  1 NonCon=     1 RMS=1.92D-03 Max=2.11D-02 NDo=     1
 LinEq1:  Iter=  2 NonCon=     1 RMS=6.20D-04 Max=5.98D-03 NDo=     1
 LinEq1:  Iter=  3 NonCon=     1 RMS=2.02D-04 Max=2.04D-03 NDo=     1
 LinEq1:  Iter=  4 NonCon=     1 RMS=6.82D-05 Max=7.15D-04 NDo=     1
 LinEq1:  Iter=  5 NonCon=     1 RMS=1.71D-05 Max=1.69D-04 NDo=     1
 LinEq1:  Iter=  6 NonCon=     1 RMS=4.41D-06 Max=3.98D-05 NDo=     1
 LinEq1:  Iter=  7 NonCon=     1 RMS=1.01D-06 Max=8.93D-06 NDo=     1
 LinEq1:  Iter=  8 NonCon=     1 RMS=2.41D-07 Max=2.58D-06 NDo=     1
 LinEq1:  Iter=  9 NonCon=     1 RMS=5.44D-08 Max=7.10D-07 NDo=     1
 LinEq1:  Iter= 10 NonCon=     1 RMS=1.19D-08 Max=1.27D-07 NDo=     1
 LinEq1:  Iter= 11 NonCon=     1 RMS=1.83D-09 Max=1.29D-08 NDo=     1
 LinEq1:  Iter= 12 NonCon=     1 RMS=2.87D-10 Max=2.11D-09 NDo=     1
 LinEq1:  Iter= 13 NonCon=     0 RMS=5.06D-11 Max=4.80D-10 NDo=     1
 Linear equations converged to 1.000D-10 1.000D-09 after    13 iterations.
 End of Minotr F.D. properties file   721 does not exist.
 End of Minotr F.D. properties file   722 does not exist.
 End of Minotr F.D. properties file   788 does not exist.
 Calling FoFJK, ICntrl=  10002127 FMM=F ISym2X=0 I1Cent= 0 IOpClX= 0 NMat=1 NMatS=1 NMatT=0.
 ***** Axes restored to original set *****
 -------------------------------------------------------------------
 Center     Atomic                   Forces (Hartrees/Bohr)
 Number     Number              X              Y              Z
 -------------------------------------------------------------------
      1       17          -0.003533005   -0.000192089   -0.000007182
      2        6           0.008520382   -0.000882752   -0.000113246
      3        1           0.000715192    0.000241978    0.000194762
      4        1           0.000665564    0.000312446   -0.000072765
      5        1          -0.000241508    0.000124717   -0.000001695
      6        8          -0.003373259    0.001729473   -0.000000625
      7        1          -0.002753365   -0.001333772    0.000000752
 -------------------------------------------------------------------
 Cartesian Forces:  Max     0.008520382 RMS     0.002297677

 GradGradGradGradGradGradGradGradGradGradGradGradGradGradGradGradGradGrad
 Berny optimization.
 FormGI is forming the generalized inverse of G from B-inverse, IUseBI=4.
 Internal  Forces:  Max     0.003536446 RMS     0.001067813
 Search for a saddle point.
 Step number   2 out of a maximum of   41
 All quantities printed in internal units (Hartrees-Bohrs-Radians)
 Swapping is turned off.
 Update second derivatives using D2CorX and points    1    2
 ITU=  0  0
     Eigenvalues ---   -0.01854  -0.00008   0.00392   0.01167   0.01275
     Eigenvalues ---    0.01695   0.05197   0.05570   0.09105   0.09213
     Eigenvalues ---    0.10136   0.32160   0.35762   0.36026   0.50314
 Eigenvectors required to have negative eigenvalues:
                          R5        D1        R1        A1        A2
   1                    0.54076  -0.49788  -0.46905   0.17682   0.17676
                          A3        R8        R6        R7        A6
   1                    0.16260   0.15173   0.13649   0.13558  -0.12920
 RFO step:  Lambda0=1.285455932D-03 Lambda=-1.00505417D-03.
 Linear search not attempted -- option 19 set.
 Maximum step size (   0.300) exceeded in Quadratic search.
    -- Step size scaled by   0.681
 Iteration  1 RMS(Cart)=  0.04675193 RMS(Int)=  0.00279772
 Iteration  2 RMS(Cart)=  0.00205300 RMS(Int)=  0.00135147
 Iteration  3 RMS(Cart)=  0.00000144 RMS(Int)=  0.00135147
 Iteration  4 RMS(Cart)=  0.00000000 RMS(Int)=  0.00135147
 Variable       Old X    -DE/DX   Delta X   Delta X   Delta X     New X
                                 (Linear)    (Quad)   (Total)
    R1        3.77639   0.00354   0.00000  -0.08698  -0.08698   3.68942
    R2        2.04983   0.00030   0.00000   0.00211   0.00261   2.05245
    R3        2.05021   0.00017   0.00000   0.00237   0.00323   2.05345
    R4        2.05272   0.00029   0.00000   0.00370   0.00370   2.05642
    R5        4.34890  -0.00245   0.00000   0.11380   0.11385   4.46275
    R6        4.40493  -0.00160   0.00000  -0.03957  -0.03968   4.36525
    R7        4.40461  -0.00160   0.00000  -0.03984  -0.03983   4.36478
    R8        4.32954  -0.00060   0.00000   0.12338   0.12279   4.45233
    R9        1.83870   0.00045   0.00000   0.00136   0.00136   1.84006
    A1        1.79295  -0.00043   0.00000   0.04881   0.04858   1.84153
    A2        1.79325  -0.00046   0.00000   0.04907   0.04925   1.84250
    A3        1.79351  -0.00039   0.00000   0.03455   0.03454   1.82804
    A4        2.02648   0.00029   0.00000  -0.02816  -0.03381   1.99267
    A5        2.00471   0.00031   0.00000  -0.03324  -0.03431   1.97040
    A6        2.00468   0.00032   0.00000  -0.03325  -0.03433   1.97035
    A7        1.82591  -0.00138   0.00000  -0.10243  -0.10277   1.72314
    A8        0.81197   0.00049   0.00000   0.00114  -0.00022   0.81176
    A9        0.81378   0.00043   0.00000  -0.01545  -0.01634   0.79744
   A10        1.57643  -0.00140   0.00000  -0.08845  -0.08772   1.48871
   A11        0.81388   0.00040   0.00000  -0.01538  -0.01621   0.79767
   A12        1.57645  -0.00139   0.00000  -0.08830  -0.08759   1.48886
   A13        2.30347  -0.00114   0.00000  -0.11484  -0.11482   2.18866
   A14        3.15405  -0.00018   0.00000  -0.02265  -0.02233   3.13172
   A15        3.16406  -0.00033   0.00000  -0.03985  -0.04002   3.12405
    D1        2.41773   0.00124   0.00000  -0.12775  -0.12501   2.29272
    D2        0.57206  -0.00002   0.00000  -0.01244  -0.01391   0.55815
    D3       -0.58067  -0.00006   0.00000   0.00191   0.00058  -0.58009
    D4        2.14531  -0.00060   0.00000  -0.05026  -0.05151   2.09380
    D5        0.58059   0.00008   0.00000  -0.00197  -0.00068   0.57991
    D6       -2.14511   0.00060   0.00000   0.05069   0.05199  -2.09312
    D7        0.00018  -0.00000   0.00000   0.00033   0.00031   0.00049
         Item               Value     Threshold  Converged?
 Maximum Force            0.003536     0.000015     NO 
 RMS     Force            0.001068     0.000010     NO 
 Maximum Displacement     0.142412     0.000060     NO 
 RMS     Displacement     0.046399     0.000040     NO 
 Predicted change in Energy= 1.054746D-04
 GradGradGradGradGradGradGradGradGradGradGradGradGradGradGradGradGradGrad

                          Input orientation:                          
 ---------------------------------------------------------------------
 Center     Atomic      Atomic             Coordinates (Angstroms)
 Number     Number       Type             X           Y           Z
 ---------------------------------------------------------------------
      1         17           0       -1.620489   -0.094138    0.000524
      2          6           0        0.328840    0.014525   -0.000123
      3          1           0        0.647740   -0.481987    0.911693
      4          1           0        0.648297   -0.482133   -0.912295
      5          1           0        0.546699    1.080705   -0.000053
      6          8           0        2.688886    0.099837   -0.000037
      7          1           0        2.871319   -0.856637    0.000298
 ---------------------------------------------------------------------
                    Distance matrix (angstroms):
                    1          2          3          4          5
     1  Cl   0.000000
     2  C    1.952355   0.000000
     3  H    2.474979   1.086108   0.000000
     4  H    2.476120   1.086637   1.823988   0.000000
     5  H    2.465149   1.088210   1.812042   1.812449   0.000000
     6  O    4.313738   2.361588   2.309988   2.309742   2.356070
     7  H    4.556067   2.687587   2.432140   2.432058   3.026079
                    6          7
     6  O    0.000000
     7  H    0.973717   0.000000
 Stoichiometry    CH4ClO(1-)
 Framework group  C1[X(CH4ClO)]
 Deg. of freedom    15
 Full point group                 C1      NOp   1
 Largest Abelian subgroup         C1      NOp   1
 Largest concise Abelian subgroup C1      NOp   1
                         Standard orientation:                         
 ---------------------------------------------------------------------
 Center     Atomic      Atomic             Coordinates (Angstroms)
 Number     Number       Type             X           Y           Z
 ---------------------------------------------------------------------
      1         17           0       -1.639798   -0.018264    0.000074
      2          6           0        0.311378    0.049578   -0.000286
      3          1           0        0.619688   -0.453641    0.911496
      4          1           0        0.620500   -0.453518   -0.912492
      5          1           0        0.551504    1.110964   -0.000018
      6          8           0        2.672693    0.085477    0.000140
      7          1           0        2.835068   -0.874606    0.000350
 ---------------------------------------------------------------------
 Rotational constants (GHZ):    119.5087493      2.2996455      2.2905171
 Standard basis: CC-pVDZ (5D, 7F)
 There are    69 symmetry adapted cartesian basis functions of A   symmetry.
 There are    66 symmetry adapted basis functions of A   symmetry.
    66 basis functions,   165 primitive gaussians,    69 cartesian basis functions
    18 alpha electrons       18 beta electrons
       nuclear repulsion energy        89.2159831252 Hartrees.
 NAtoms=    7 NActive=    7 NUniq=    7 SFac= 1.00D+00 NAtFMM=   60 NAOKFM=F Big=F
 Integral buffers will be    131072 words long.
 Raffenetti 1 integral format.
 Two-electron integral symmetry is turned on.
 One-electron integrals computed using PRISM.
 NBasis=    66 RedAO= T EigKep=  1.96D-02  NBF=    66
 NBsUse=    66 1.00D-06 EigRej= -1.00D+00 NBFU=    66
 Initial guess from the checkpoint file:  "/localscratch/rjackson.12297310.0/Gau-501.chk"
 B after Tr=     0.000000    0.000000    0.000000
         Rot=    1.000000   -0.000077    0.000026    0.000321 Ang=  -0.04 deg.
 ExpMin= 1.22D-01 ExpMax= 1.28D+05 ExpMxC= 1.24D+03 IAcc=3 IRadAn=         5 AccDes= 0.00D+00
 Harris functional with IExCor=  205 and IRadAn=       5 diagonalized for initial guess.
 HarFok:  IExCor=  205 AccDes= 0.00D+00 IRadAn=         5 IDoV= 1 UseB2=F ITyADJ=14
 ICtDFT=  3500011 ScaDFX=  1.000000  1.000000  1.000000  1.000000
 FoFCou: FMM=F IPFlag=           0 FMFlag=      100000 FMFlg1=           0
         NFxFlg=           0 DoJE=T BraDBF=F KetDBF=T FulRan=T
         wScrn=  0.000000 ICntrl=     500 IOpCl=  0 I1Cent=   200000004 NGrid=           0
         NMat0=    1 NMatS0=      1 NMatT0=    0 NMatD0=    1 NMtDS0=    0 NMtDT0=    0
 Petite list used in FoFCou.
 Keep R1 ints in memory in canonical form, NReq=3411358.
 Requested convergence on RMS density matrix=1.00D-08 within 256 cycles.
 Requested convergence on MAX density matrix=1.00D-06.
 Requested convergence on             energy=1.00D-06.
 No special actions if energy rises.
 SCF Done:  E(RHF) =  -574.488832769     A.U. after   12 cycles
            NFock= 12  Conv=0.94D-08     -V/T= 1.9999
 ExpMin= 1.22D-01 ExpMax= 1.28D+05 ExpMxC= 1.24D+03 IAcc=3 IRadAn=         7 AccDes= 0.00D+00
 HarFok:  IExCor=  205 AccDes= 0.00D+00 IRadAn=         7 IDoV=-2 UseB2=F ITyADJ=14
 ICtDFT= 12500011 ScaDFX=  1.000000  1.000000  1.000000  1.000000
 Range of M.O.s used for correlation:     8    66
 NBasis=    66 NAE=    18 NBE=    18 NFC=     7 NFV=     0
 NROrb=     59 NOA=    11 NOB=    11 NVA=    48 NVB=    48
 Fully direct method using O(ONN) memory.
 JobTyp=1 Pass  1:  I=   8 to  18 NPSUse=  1 ParTrn=F ParDer=F DoDerP=T.
 Spin components of T(2) and E(2):
     alpha-alpha T2 =       0.2017418533D-01 E2=     -0.6107674577D-01
     alpha-beta  T2 =       0.1190309165D+00 E2=     -0.3677788030D+00
     beta-beta   T2 =       0.2017418533D-01 E2=     -0.6107674577D-01
 ANorm=    0.1076744764D+01
 E2 =    -0.4899322946D+00 EUMP2 =    -0.57497876506308D+03
          IDoAtm=1111111
          Differentiating once with respect to electric field.
                with respect to dipole field.
          Differentiating once with respect to nuclear coordinates.
 Keep R1 ints in memory in canonical form, NReq=3353444.
          There are     1 degrees of freedom in the 1st order CPHF.  IDoFFX=0 NUNeed=     1.
 LinEq1:  Iter=  0 NonCon=     1 RMS=7.93D-03 Max=1.19D-01 NDo=     1
 AX will form     1 AO Fock derivatives at one time.
 LinEq1:  Iter=  1 NonCon=     1 RMS=1.80D-03 Max=1.95D-02 NDo=     1
 LinEq1:  Iter=  2 NonCon=     1 RMS=5.84D-04 Max=6.31D-03 NDo=     1
 LinEq1:  Iter=  3 NonCon=     1 RMS=1.87D-04 Max=2.14D-03 NDo=     1
 LinEq1:  Iter=  4 NonCon=     1 RMS=6.37D-05 Max=6.65D-04 NDo=     1
 LinEq1:  Iter=  5 NonCon=     1 RMS=1.61D-05 Max=1.54D-04 NDo=     1
 LinEq1:  Iter=  6 NonCon=     1 RMS=3.95D-06 Max=3.75D-05 NDo=     1
 LinEq1:  Iter=  7 NonCon=     1 RMS=9.20D-07 Max=8.45D-06 NDo=     1
 LinEq1:  Iter=  8 NonCon=     1 RMS=2.12D-07 Max=1.80D-06 NDo=     1
 LinEq1:  Iter=  9 NonCon=     1 RMS=4.32D-08 Max=5.68D-07 NDo=     1
 LinEq1:  Iter= 10 NonCon=     1 RMS=1.03D-08 Max=1.41D-07 NDo=     1
 LinEq1:  Iter= 11 NonCon=     1 RMS=1.64D-09 Max=1.17D-08 NDo=     1
 LinEq1:  Iter= 12 NonCon=     1 RMS=2.60D-10 Max=1.70D-09 NDo=     1
 LinEq1:  Iter= 13 NonCon=     0 RMS=4.65D-11 Max=3.48D-10 NDo=     1
 Linear equations converged to 1.000D-10 1.000D-09 after    13 iterations.
 End of Minotr F.D. properties file   721 does not exist.
 End of Minotr F.D. properties file   722 does not exist.
 End of Minotr F.D. properties file   788 does not exist.
 Calling FoFJK, ICntrl=  10002127 FMM=F ISym2X=0 I1Cent= 0 IOpClX= 0 NMat=1 NMatS=1 NMatT=0.
 ***** Axes restored to original set *****
 -------------------------------------------------------------------
 Center     Atomic                   Forces (Hartrees/Bohr)
 Number     Number              X              Y              Z
 -------------------------------------------------------------------
      1       17          -0.002148588   -0.000213987   -0.000029492
      2        6           0.005650570   -0.000695810   -0.000267758
      3        1           0.000127690    0.000205960    0.000322389
      4        1          -0.000031078    0.000377739   -0.000014235
      5        1          -0.000724237    0.000307192   -0.000005807
      6        8          -0.001333464    0.000419527   -0.000005717
      7        1          -0.001540893   -0.000400620    0.000000620
 -------------------------------------------------------------------
 Cartesian Forces:  Max     0.005650570 RMS     0.001423649

 GradGradGradGradGradGradGradGradGradGradGradGradGradGradGradGradGradGrad
 Berny optimization.
 FormGI is forming the generalized inverse of G from B-inverse, IUseBI=4.
 Internal  Forces:  Max     0.002157158 RMS     0.000624896
 Search for a saddle point.
 Step number   3 out of a maximum of   41
 All quantities printed in internal units (Hartrees-Bohrs-Radians)
 Swapping is turned off.
 Update second derivatives using D2CorX and points    2    3
 ITU=  0  0  0
     Eigenvalues ---   -0.01455  -0.00008   0.00186   0.01165   0.01263
     Eigenvalues ---    0.01727   0.05196   0.05540   0.09105   0.09212
     Eigenvalues ---    0.10086   0.32111   0.35669   0.35939   0.50314
 Eigenvectors required to have negative eigenvalues:
                          R5        D1        R1        A1        A2
   1                    0.53826  -0.45684  -0.45367   0.17158   0.17066
                          A3        R6        R7        A10       A12
   1                    0.16006   0.15323   0.15240   0.14677   0.14663
 RFO step:  Lambda0=6.557078011D-04 Lambda=-4.32243557D-04.
 Linear search not attempted -- option 19 set.
 Maximum step size (   0.300) exceeded in Quadratic search.
    -- Step size scaled by   0.685
 Iteration  1 RMS(Cart)=  0.04554601 RMS(Int)=  0.00236738
 Iteration  2 RMS(Cart)=  0.00176182 RMS(Int)=  0.00104688
 Iteration  3 RMS(Cart)=  0.00000106 RMS(Int)=  0.00104688
 Iteration  4 RMS(Cart)=  0.00000000 RMS(Int)=  0.00104688
 Variable       Old X    -DE/DX   Delta X   Delta X   Delta X     New X
                                 (Linear)    (Quad)   (Total)
    R1        3.68942   0.00216   0.00000  -0.07574  -0.07574   3.61367
    R2        2.05245   0.00018   0.00000   0.00251   0.00286   2.05530
    R3        2.05345  -0.00015   0.00000   0.00244   0.00316   2.05661
    R4        2.05642   0.00018   0.00000   0.00385   0.00375   2.06016
    R5        4.46275  -0.00139   0.00000   0.12359   0.12306   4.58582
    R6        4.36525  -0.00082   0.00000  -0.02071  -0.02048   4.34476
    R7        4.36478  -0.00083   0.00000  -0.02063  -0.02017   4.34461
    R8        4.45233   0.00012   0.00000   0.16657   0.16600   4.61833
    R9        1.84006   0.00010   0.00000   0.00077   0.00077   1.84083
    A1        1.84153  -0.00032   0.00000   0.04071   0.04036   1.88190
    A2        1.84250  -0.00040   0.00000   0.04076   0.04101   1.88350
    A3        1.82804  -0.00034   0.00000   0.02274   0.02248   1.85053
    A4        1.99267   0.00035   0.00000  -0.02842  -0.03263   1.96004
    A5        1.97040   0.00025   0.00000  -0.02913  -0.02906   1.94134
    A6        1.97035   0.00028   0.00000  -0.02919  -0.02915   1.94120
    A7        1.72314  -0.00073   0.00000  -0.09095  -0.09120   1.63194
    A8        0.81176   0.00027   0.00000  -0.00280  -0.00396   0.80780
    A9        0.79744   0.00021   0.00000  -0.02177  -0.02245   0.77499
   A10        1.48871  -0.00071   0.00000  -0.07342  -0.07277   1.41594
   A11        0.79767   0.00015   0.00000  -0.02183  -0.02245   0.77522
   A12        1.48886  -0.00068   0.00000  -0.07362  -0.07300   1.41587
   A13        2.18866  -0.00062   0.00000  -0.10545  -0.10529   2.08337
   A14        3.13172  -0.00013   0.00000  -0.02448  -0.02413   3.10759
   A15        3.12405  -0.00030   0.00000  -0.04596  -0.04637   3.07768
    D1        2.29272   0.00099   0.00000  -0.09520  -0.09384   2.19888
    D2        0.55815  -0.00012   0.00000  -0.01971  -0.02123   0.53692
    D3       -0.58009  -0.00005   0.00000  -0.00128  -0.00257  -0.58266
    D4        2.09380  -0.00039   0.00000  -0.05163  -0.05296   2.04084
    D5        0.57991   0.00008   0.00000   0.00135   0.00263   0.58254
    D6       -2.09312   0.00038   0.00000   0.05112   0.05247  -2.04065
    D7        0.00049   0.00000   0.00000  -0.00045  -0.00045   0.00003
         Item               Value     Threshold  Converged?
 Maximum Force            0.002157     0.000015     NO 
 RMS     Force            0.000625     0.000010     NO 
 Maximum Displacement     0.117884     0.000060     NO 
 RMS     Displacement     0.045212     0.000040     NO 
 Predicted change in Energy= 8.937638D-05
 GradGradGradGradGradGradGradGradGradGradGradGradGradGradGradGradGradGrad

                          Input orientation:                          
 ---------------------------------------------------------------------
 Center     Atomic      Atomic             Coordinates (Angstroms)
 Number     Number       Type             X           Y           Z
 ---------------------------------------------------------------------
      1         17           0       -1.601340   -0.143377    0.000908
      2          6           0        0.303192    0.028518   -0.000271
      3          1           0        0.680776   -0.445084    0.903082
      4          1           0        0.681558   -0.445245   -0.904045
      5          1           0        0.508782    1.099149   -0.000213
      6          8           0        2.729387    0.078542    0.000255
      7          1           0        2.808938   -0.892331    0.000290
 ---------------------------------------------------------------------
                    Distance matrix (angstroms):
                    1          2          3          4          5
     1  Cl   0.000000
     2  C    1.912274   0.000000
     3  H    2.472448   1.087619   0.000000
     4  H    2.474205   1.088310   1.807128   0.000000
     5  H    2.448773   1.090192   1.797270   1.797754   0.000000
     6  O    4.336409   2.426711   2.299149   2.299069   2.443916
     7  H    4.473420   2.669592   2.354599   2.354454   3.042484
                    6          7
     6  O    0.000000
     7  H    0.974126   0.000000
 Stoichiometry    CH4ClO(1-)
 Framework group  C1[X(CH4ClO)]
 Deg. of freedom    15
 Full point group                 C1      NOp   1
 Largest Abelian subgroup         C1      NOp   1
 Largest concise Abelian subgroup C1      NOp   1
                         Standard orientation:                         
 ---------------------------------------------------------------------
 Center     Atomic      Atomic             Coordinates (Angstroms)
 Number     Number       Type             X           Y           Z
 ---------------------------------------------------------------------
      1         17           0       -1.634643   -0.029774    0.000161
      2          6           0        0.274065    0.086954   -0.000608
      3          1           0        0.637621   -0.397786    0.902592
      4          1           0        0.638736   -0.397143   -0.904536
      5          1           0        0.510540    1.151190   -0.000018
      6          8           0        2.700691    0.066771    0.000363
      7          1           0        2.752123   -0.905997   -0.000038
 ---------------------------------------------------------------------
 Rotational constants (GHZ):    117.8748691      2.2884553      2.2781791
 Standard basis: CC-pVDZ (5D, 7F)
 There are    69 symmetry adapted cartesian basis functions of A   symmetry.
 There are    66 symmetry adapted basis functions of A   symmetry.
    66 basis functions,   165 primitive gaussians,    69 cartesian basis functions
    18 alpha electrons       18 beta electrons
       nuclear repulsion energy        89.4527382726 Hartrees.
 NAtoms=    7 NActive=    7 NUniq=    7 SFac= 1.00D+00 NAtFMM=   60 NAOKFM=F Big=F
 Integral buffers will be    131072 words long.
 Raffenetti 1 integral format.
 Two-electron integral symmetry is turned on.
 One-electron integrals computed using PRISM.
 NBasis=    66 RedAO= T EigKep=  1.89D-02  NBF=    66
 NBsUse=    66 1.00D-06 EigRej= -1.00D+00 NBFU=    66
 Initial guess from the checkpoint file:  "/localscratch/rjackson.12297310.0/Gau-501.chk"
 B after Tr=    -0.000000    0.000000    0.000000
         Rot=    1.000000   -0.000173    0.000001    0.000102 Ang=  -0.02 deg.
 ExpMin= 1.22D-01 ExpMax= 1.28D+05 ExpMxC= 1.24D+03 IAcc=3 IRadAn=         5 AccDes= 0.00D+00
 Harris functional with IExCor=  205 and IRadAn=       5 diagonalized for initial guess.
 HarFok:  IExCor=  205 AccDes= 0.00D+00 IRadAn=         5 IDoV= 1 UseB2=F ITyADJ=14
 ICtDFT=  3500011 ScaDFX=  1.000000  1.000000  1.000000  1.000000
 FoFCou: FMM=F IPFlag=           0 FMFlag=      100000 FMFlg1=           0
         NFxFlg=           0 DoJE=T BraDBF=F KetDBF=T FulRan=T
         wScrn=  0.000000 ICntrl=     500 IOpCl=  0 I1Cent=   200000004 NGrid=           0
         NMat0=    1 NMatS0=      1 NMatT0=    0 NMatD0=    1 NMtDS0=    0 NMtDT0=    0
 Petite list used in FoFCou.
 Keep R1 ints in memory in canonical form, NReq=3411526.
 Requested convergence on RMS density matrix=1.00D-08 within 256 cycles.
 Requested convergence on MAX density matrix=1.00D-06.
 Requested convergence on             energy=1.00D-06.
 No special actions if energy rises.
 SCF Done:  E(RHF) =  -574.488082282     A.U. after   12 cycles
            NFock= 12  Conv=0.87D-08     -V/T= 1.9999
 ExpMin= 1.22D-01 ExpMax= 1.28D+05 ExpMxC= 1.24D+03 IAcc=3 IRadAn=         7 AccDes= 0.00D+00
 HarFok:  IExCor=  205 AccDes= 0.00D+00 IRadAn=         7 IDoV=-2 UseB2=F ITyADJ=14
 ICtDFT= 12500011 ScaDFX=  1.000000  1.000000  1.000000  1.000000
 Range of M.O.s used for correlation:     8    66
 NBasis=    66 NAE=    18 NBE=    18 NFC=     7 NFV=     0
 NROrb=     59 NOA=    11 NOB=    11 NVA=    48 NVB=    48
 Fully direct method using O(ONN) memory.
 JobTyp=1 Pass  1:  I=   8 to  18 NPSUse=  1 ParTrn=F ParDer=F DoDerP=T.
 Spin components of T(2) and E(2):
     alpha-alpha T2 =       0.2020500172D-01 E2=     -0.6120465333D-01
     alpha-beta  T2 =       0.1188757466D+00 E2=     -0.3681136539D+00
     beta-beta   T2 =       0.2020500172D-01 E2=     -0.6120465333D-01
 ANorm=    0.1076701328D+01
 E2 =    -0.4905229606D+00 EUMP2 =    -0.57497860524288D+03
          IDoAtm=1111111
          Differentiating once with respect to electric field.
                with respect to dipole field.
          Differentiating once with respect to nuclear coordinates.
 Keep R1 ints in memory in canonical form, NReq=3353615.
          There are     1 degrees of freedom in the 1st order CPHF.  IDoFFX=0 NUNeed=     1.
 LinEq1:  Iter=  0 NonCon=     1 RMS=7.67D-03 Max=1.13D-01 NDo=     1
 AX will form     1 AO Fock derivatives at one time.
 LinEq1:  Iter=  1 NonCon=     1 RMS=1.69D-03 Max=1.78D-02 NDo=     1
 LinEq1:  Iter=  2 NonCon=     1 RMS=5.46D-04 Max=6.14D-03 NDo=     1
 LinEq1:  Iter=  3 NonCon=     1 RMS=1.73D-04 Max=2.15D-03 NDo=     1
 LinEq1:  Iter=  4 NonCon=     1 RMS=5.91D-05 Max=5.97D-04 NDo=     1
 LinEq1:  Iter=  5 NonCon=     1 RMS=1.50D-05 Max=1.39D-04 NDo=     1
 LinEq1:  Iter=  6 NonCon=     1 RMS=3.49D-06 Max=3.65D-05 NDo=     1
 LinEq1:  Iter=  7 NonCon=     1 RMS=8.12D-07 Max=7.88D-06 NDo=     1
 LinEq1:  Iter=  8 NonCon=     1 RMS=1.81D-07 Max=1.41D-06 NDo=     1
 LinEq1:  Iter=  9 NonCon=     1 RMS=2.72D-08 Max=1.86D-07 NDo=     1
 LinEq1:  Iter= 10 NonCon=     1 RMS=4.52D-09 Max=5.56D-08 NDo=     1
 LinEq1:  Iter= 11 NonCon=     1 RMS=1.03D-09 Max=1.79D-08 NDo=     1
 LinEq1:  Iter= 12 NonCon=     1 RMS=2.29D-10 Max=2.17D-09 NDo=     1
 LinEq1:  Iter= 13 NonCon=     0 RMS=4.47D-11 Max=3.67D-10 NDo=     1
 Linear equations converged to 1.000D-10 1.000D-09 after    13 iterations.
 End of Minotr F.D. properties file   721 does not exist.
 End of Minotr F.D. properties file   722 does not exist.
 End of Minotr F.D. properties file   788 does not exist.
 Calling FoFJK, ICntrl=  10002127 FMM=F ISym2X=0 I1Cent= 0 IOpClX= 0 NMat=1 NMatS=1 NMatT=0.
 ***** Axes restored to original set *****
 -------------------------------------------------------------------
 Center     Atomic                   Forces (Hartrees/Bohr)
 Number     Number              X              Y              Z
 -------------------------------------------------------------------
      1       17          -0.002012769   -0.000350472   -0.000056197
      2        6           0.004961492   -0.000136511   -0.000308160
      3        1          -0.000124190    0.000071741    0.000377772
      4        1          -0.000373767    0.000265979    0.000002203
      5        1          -0.000864126    0.000423913   -0.000004355
      6        8          -0.000934625   -0.000203686   -0.000011870
      7        1          -0.000652015   -0.000070963    0.000000608
 -------------------------------------------------------------------
 Cartesian Forces:  Max     0.004961492 RMS     0.001225769

 GradGradGradGradGradGradGradGradGradGradGradGradGradGradGradGradGradGrad
 Berny optimization.
 FormGI is forming the generalized inverse of G from B-inverse, IUseBI=4.
 Internal  Forces:  Max     0.002036090 RMS     0.000507668
 Search for a saddle point.
 Step number   4 out of a maximum of   41
 All quantities printed in internal units (Hartrees-Bohrs-Radians)
 Swapping is turned off.
 Update second derivatives using D2CorX and points    3    4
 ITU=  0  0  0  0
     Eigenvalues ---   -0.01100  -0.00008   0.00087   0.01163   0.01253
     Eigenvalues ---    0.01767   0.05195   0.05497   0.09106   0.09213
     Eigenvalues ---    0.10052   0.32037   0.35529   0.35806   0.50314
 Eigenvectors required to have negative eigenvalues:
                          R5        R1        D1        A7        A12
   1                    0.49386  -0.41669  -0.40187   0.22586   0.22503
                          A10       A13       R6        R7        A1
   1                    0.22491   0.20216   0.17726   0.17621   0.15537
 RFO step:  Lambda0=5.270985560D-04 Lambda=-8.34023917D-05.
 Linear search not attempted -- option 19 set.
 Maximum step size (   0.300) exceeded in Quadratic search.
    -- Step size scaled by   0.019
 Iteration  1 RMS(Cart)=  0.04798673 RMS(Int)=  0.07893693
 Iteration  2 RMS(Cart)=  0.04775672 RMS(Int)=  0.01828201
 Iteration  3 RMS(Cart)=  0.00993414 RMS(Int)=  0.01183573
 Iteration  4 RMS(Cart)=  0.00022627 RMS(Int)=  0.01183162
 Iteration  5 RMS(Cart)=  0.00000266 RMS(Int)=  0.01183162
 Iteration  6 RMS(Cart)=  0.00000004 RMS(Int)=  0.01183162
 Variable       Old X    -DE/DX   Delta X   Delta X   Delta X     New X
                                 (Linear)    (Quad)   (Total)
    R1        3.61367   0.00204   0.00000  -0.00165  -0.00165   3.61203
    R2        2.05530   0.00019   0.00000  -0.00053   0.00449   2.05979
    R3        2.05661  -0.00025   0.00000   0.00076   0.00096   2.05757
    R4        2.06016   0.00016   0.00000   0.00010   0.00906   2.06923
    R5        4.58582  -0.00100   0.00000   0.00239  -0.00125   4.58457
    R6        4.34476  -0.00049   0.00000   0.10351   0.10217   4.44693
    R7        4.34461  -0.00049   0.00000  -0.10269  -0.10338   4.24123
    R8        4.61833   0.00040   0.00000   0.00199   0.00118   4.61951
    R9        1.84083   0.00002   0.00000   0.00001   0.00001   1.84084
    A1        1.88190  -0.00033   0.00000  -0.01025  -0.01051   1.87139
    A2        1.88350  -0.00046   0.00000   0.01112   0.01055   1.89406
    A3        1.85053  -0.00022   0.00000   0.00081   0.00190   1.85242
    A4        1.96004   0.00032   0.00000  -0.00163   0.00130   1.96134
    A5        1.94134   0.00029   0.00000  -0.03589  -0.03843   1.90291
    A6        1.94120   0.00032   0.00000   0.03598   0.03444   1.97564
    A7        1.63194  -0.00030   0.00000   0.00047   0.00432   1.63626
    A8        0.80780   0.00018   0.00000  -0.00050   0.00032   0.80811
    A9        0.77499   0.00014   0.00000  -0.01810  -0.01610   0.75889
   A10        1.41594  -0.00030   0.00000  -0.16820  -0.14131   1.27463
   A11        0.77522   0.00007   0.00000   0.01773   0.01913   0.79435
   A12        1.41587  -0.00026   0.00000   0.16898   0.18473   1.60059
   A13        2.08337  -0.00024   0.00000   0.00027  -0.05171   2.03166
   A14        3.10759  -0.00014   0.00000   0.03944   0.03989   3.14747
   A15        3.07768  -0.00041   0.00000  -0.02302  -0.02163   3.05605
    D1        2.19888   0.00089   0.00000  -0.00208  -0.00209   2.19679
    D2        0.53692  -0.00011   0.00000   0.00395   0.00296   0.53988
    D3       -0.58266  -0.00001   0.00000  -0.03392  -0.03574  -0.61840
    D4        2.04084  -0.00021   0.00000   0.39774   0.41109   2.45193
    D5        0.58254   0.00006   0.00000  -0.03451  -0.03281   0.54973
    D6       -2.04065   0.00018   0.00000   0.39640   0.38310  -1.65755
    D7        0.00003   0.00001   0.00000   0.56248   0.55064   0.55068
         Item               Value     Threshold  Converged?
 Maximum Force            0.002036     0.000015     NO 
 RMS     Force            0.000508     0.000010     NO 
 Maximum Displacement     0.359733     0.000060     NO 
 RMS     Displacement     0.097905     0.000040     NO 
 Predicted change in Energy=-1.860107D-05
 GradGradGradGradGradGradGradGradGradGradGradGradGradGradGradGradGradGrad

                          Input orientation:                          
 ---------------------------------------------------------------------
 Center     Atomic      Atomic             Coordinates (Angstroms)
 Number     Number       Type             X           Y           Z
 ---------------------------------------------------------------------
      1         17           0       -1.603889   -0.128421    0.013238
      2          6           0        0.301271    0.022614   -0.018628
      3          1           0        0.680929   -0.496443    0.861445
      4          1           0        0.667298   -0.413123   -0.946898
      5          1           0        0.523434    1.090869    0.073410
      6          8           0        2.722220    0.051496   -0.173212
      7          1           0        2.820030   -0.846819    0.190652
 ---------------------------------------------------------------------
                    Distance matrix (angstroms):
                    1          2          3          4          5
     1  Cl   0.000000
     2  C    1.911403   0.000000
     3  H    2.464810   1.089994   0.000000
     4  H    2.482178   1.088820   1.810313   0.000000
     5  H    2.452711   1.094987   1.779147   1.823106   0.000000
     6  O    4.333861   2.426051   2.353215   2.244362   2.444540
     7  H    4.485379   2.672799   2.269026   2.473129   3.007113
                    6          7
     6  O    0.000000
     7  H    0.974133   0.000000
 Stoichiometry    CH4ClO(1-)
 Framework group  C1[X(CH4ClO)]
 Deg. of freedom    15
 Full point group                 C1      NOp   1
 Largest Abelian subgroup         C1      NOp   1
 Largest concise Abelian subgroup C1      NOp   1
                         Standard orientation:                         
 ---------------------------------------------------------------------
 Center     Atomic      Atomic             Coordinates (Angstroms)
 Number     Number       Type             X           Y           Z
 ---------------------------------------------------------------------
      1         17           0       -1.634310   -0.024797   -0.016516
      2          6           0        0.273620    0.072919    0.044450
      3          1           0        0.613520   -0.688695    0.746232
      4          1           0        0.660450   -0.087348   -0.960640
      5          1           0        0.514960    1.062300    0.446791
      6          8           0        2.698389    0.073924   -0.034379
      7          1           0        2.765511   -0.893614    0.056721
 ---------------------------------------------------------------------
 Rotational constants (GHZ):    117.1629122      2.2891294      2.2806458
 Standard basis: CC-pVDZ (5D, 7F)
 There are    69 symmetry adapted cartesian basis functions of A   symmetry.
 There are    66 symmetry adapted basis functions of A   symmetry.
    66 basis functions,   165 primitive gaussians,    69 cartesian basis functions
    18 alpha electrons       18 beta electrons
       nuclear repulsion energy        89.4448726272 Hartrees.
 NAtoms=    7 NActive=    7 NUniq=    7 SFac= 1.00D+00 NAtFMM=   60 NAOKFM=F Big=F
 Integral buffers will be    131072 words long.
 Raffenetti 1 integral format.
 Two-electron integral symmetry is turned on.
 One-electron integrals computed using PRISM.
 NBasis=    66 RedAO= T EigKep=  1.88D-02  NBF=    66
 NBsUse=    66 1.00D-06 EigRej= -1.00D+00 NBFU=    66
 Initial guess from the checkpoint file:  "/localscratch/rjackson.12297310.0/Gau-501.chk"
 B after Tr=     0.000000   -0.000000   -0.000000
         Rot=    0.990841   -0.135035    0.000342   -0.000005 Ang= -15.52 deg.
 ExpMin= 1.22D-01 ExpMax= 1.28D+05 ExpMxC= 1.24D+03 IAcc=3 IRadAn=         5 AccDes= 0.00D+00
 Harris functional with IExCor=  205 and IRadAn=       5 diagonalized for initial guess.
 HarFok:  IExCor=  205 AccDes= 0.00D+00 IRadAn=         5 IDoV= 1 UseB2=F ITyADJ=14
 ICtDFT=  3500011 ScaDFX=  1.000000  1.000000  1.000000  1.000000
 FoFCou: FMM=F IPFlag=           0 FMFlag=      100000 FMFlg1=           0
         NFxFlg=           0 DoJE=T BraDBF=F KetDBF=T FulRan=T
         wScrn=  0.000000 ICntrl=     500 IOpCl=  0 I1Cent=   200000004 NGrid=           0
         NMat0=    1 NMatS0=      1 NMatT0=    0 NMatD0=    1 NMtDS0=    0 NMtDT0=    0
 Petite list used in FoFCou.
 Keep R1 ints in memory in canonical form, NReq=3411470.
 Requested convergence on RMS density matrix=1.00D-08 within 256 cycles.
 Requested convergence on MAX density matrix=1.00D-06.
 Requested convergence on             energy=1.00D-06.
 No special actions if energy rises.
 SCF Done:  E(RHF) =  -574.487635386     A.U. after   13 cycles
            NFock= 13  Conv=0.55D-08     -V/T= 1.9999
 ExpMin= 1.22D-01 ExpMax= 1.28D+05 ExpMxC= 1.24D+03 IAcc=3 IRadAn=         7 AccDes= 0.00D+00
 HarFok:  IExCor=  205 AccDes= 0.00D+00 IRadAn=         7 IDoV=-2 UseB2=F ITyADJ=14
 ICtDFT= 12500011 ScaDFX=  1.000000  1.000000  1.000000  1.000000
 Range of M.O.s used for correlation:     8    66
 NBasis=    66 NAE=    18 NBE=    18 NFC=     7 NFV=     0
 NROrb=     59 NOA=    11 NOB=    11 NVA=    48 NVB=    48
 Fully direct method using O(ONN) memory.
 JobTyp=1 Pass  1:  I=   8 to  18 NPSUse=  1 ParTrn=F ParDer=F DoDerP=T.
 Spin components of T(2) and E(2):
     alpha-alpha T2 =       0.2021295651D-01 E2=     -0.6121433828D-01
     alpha-beta  T2 =       0.1189868424D+00 E2=     -0.3682426341D+00
     beta-beta   T2 =       0.2021295651D-01 E2=     -0.6121433828D-01
 ANorm=    0.1076760305D+01
 E2 =    -0.4906713106D+00 EUMP2 =    -0.57497830669634D+03
          IDoAtm=1111111
          Differentiating once with respect to electric field.
                with respect to dipole field.
          Differentiating once with respect to nuclear coordinates.
 Keep R1 ints in memory in canonical form, NReq=3353596.
          There are     1 degrees of freedom in the 1st order CPHF.  IDoFFX=0 NUNeed=     1.
 LinEq1:  Iter=  0 NonCon=     1 RMS=7.64D-03 Max=1.14D-01 NDo=     1
 AX will form     1 AO Fock derivatives at one time.
 LinEq1:  Iter=  1 NonCon=     1 RMS=1.69D-03 Max=1.73D-02 NDo=     1
 LinEq1:  Iter=  2 NonCon=     1 RMS=5.47D-04 Max=6.13D-03 NDo=     1
 LinEq1:  Iter=  3 NonCon=     1 RMS=1.72D-04 Max=2.02D-03 NDo=     1
 LinEq1:  Iter=  4 NonCon=     1 RMS=5.91D-05 Max=6.03D-04 NDo=     1
 LinEq1:  Iter=  5 NonCon=     1 RMS=1.50D-05 Max=1.43D-04 NDo=     1
 LinEq1:  Iter=  6 NonCon=     1 RMS=3.54D-06 Max=3.79D-05 NDo=     1
 LinEq1:  Iter=  7 NonCon=     1 RMS=8.22D-07 Max=7.05D-06 NDo=     1
 LinEq1:  Iter=  8 NonCon=     1 RMS=1.88D-07 Max=1.44D-06 NDo=     1
 LinEq1:  Iter=  9 NonCon=     1 RMS=3.08D-08 Max=3.10D-07 NDo=     1
 LinEq1:  Iter= 10 NonCon=     1 RMS=6.37D-09 Max=8.63D-08 NDo=     1
 LinEq1:  Iter= 11 NonCon=     1 RMS=1.29D-09 Max=1.16D-08 NDo=     1
 LinEq1:  Iter= 12 NonCon=     1 RMS=2.38D-10 Max=1.59D-09 NDo=     1
 LinEq1:  Iter= 13 NonCon=     0 RMS=4.82D-11 Max=3.69D-10 NDo=     1
 Linear equations converged to 1.000D-10 1.000D-09 after    13 iterations.
 End of Minotr F.D. properties file   721 does not exist.
 End of Minotr F.D. properties file   722 does not exist.
 End of Minotr F.D. properties file   788 does not exist.
 Calling FoFJK, ICntrl=  10002127 FMM=F ISym2X=0 I1Cent= 0 IOpClX= 0 NMat=1 NMatS=1 NMatT=0.
 ***** Axes restored to original set *****
 -------------------------------------------------------------------
 Center     Atomic                   Forces (Hartrees/Bohr)
 Number     Number              X              Y              Z
 -------------------------------------------------------------------
      1       17          -0.002144258   -0.000282529    0.000244052
      2        6           0.005891498    0.003174624    0.003408169
      3        1          -0.002118733   -0.001749303   -0.000673224
      4        1           0.000979784    0.001537985    0.001142509
      5        1          -0.001322270   -0.002702444   -0.003384125
      6        8          -0.000932430    0.000272163   -0.000178275
      7        1          -0.000353590   -0.000250495   -0.000559106
 -------------------------------------------------------------------
 Cartesian Forces:  Max     0.005891498 RMS     0.002135342

 GradGradGradGradGradGradGradGradGradGradGradGradGradGradGradGradGradGrad
 Berny optimization.
 FormGI is forming the generalized inverse of G from B-inverse, IUseBI=4.
 Internal  Forces:  Max     0.002657918 RMS     0.001033542
 Search for a saddle point.
 Step number   5 out of a maximum of   41
 All quantities printed in internal units (Hartrees-Bohrs-Radians)
 Swapping is turned off.
 Update second derivatives using D2CorX and points    4    5
 ITU=  0  0  0  0  0
     Eigenvalues ---   -0.01097  -0.00033   0.00145   0.01195   0.01253
     Eigenvalues ---    0.01760   0.05250   0.05488   0.09106   0.09212
     Eigenvalues ---    0.10046   0.31955   0.35404   0.35649   0.50314
 Eigenvectors required to have negative eigenvalues:
                          R5        R1        D1        A10       A7
   1                    0.49357  -0.41558  -0.40069   0.23907   0.22665
                          A12       A13       R6        R7        A6
   1                    0.21223   0.19721   0.18136   0.17256  -0.15961
 RFO step:  Lambda0=3.658441951D-04 Lambda=-8.73956747D-04.
 Linear search not attempted -- option 19 set.
 Maximum step size (   0.300) exceeded in Quadratic search.
    -- Step size scaled by   0.434
 Iteration  1 RMS(Cart)=  0.05949929 RMS(Int)=  0.00456623
 Iteration  2 RMS(Cart)=  0.00328487 RMS(Int)=  0.00179408
 Iteration  3 RMS(Cart)=  0.00000656 RMS(Int)=  0.00179406
 Iteration  4 RMS(Cart)=  0.00000001 RMS(Int)=  0.00179406
 Variable       Old X    -DE/DX   Delta X   Delta X   Delta X     New X
                                 (Linear)    (Quad)   (Total)
    R1        3.61203   0.00216   0.00000   0.01320   0.01320   3.62523
    R2        2.05979  -0.00069   0.00000   0.00087   0.00193   2.06172
    R3        2.05757  -0.00088   0.00000  -0.00307  -0.00288   2.05469
    R4        2.06923  -0.00266   0.00000  -0.00338  -0.00276   2.06646
    R5        4.58457  -0.00076   0.00000  -0.04473  -0.04535   4.53922
    R6        4.44693   0.00092   0.00000   0.11469   0.11407   4.56100
    R7        4.24123  -0.00158   0.00000  -0.04121  -0.04015   4.20108
    R8        4.61951  -0.00021   0.00000  -0.15443  -0.15502   4.46449
    R9        1.84084  -0.00001   0.00000  -0.00018  -0.00018   1.84066
    A1        1.87139  -0.00089   0.00000  -0.02374  -0.02401   1.84738
    A2        1.89406   0.00012   0.00000  -0.00228  -0.00182   1.89224
    A3        1.85242  -0.00032   0.00000   0.00425   0.00338   1.85580
    A4        1.96134  -0.00015   0.00000   0.00492   0.00357   1.96491
    A5        1.90291   0.00242   0.00000   0.03165   0.03557   1.93848
    A6        1.97564  -0.00123   0.00000  -0.01605  -0.01804   1.95760
    A7        1.63626  -0.00004   0.00000   0.10876   0.10811   1.74437
    A8        0.80811  -0.00034   0.00000  -0.00827  -0.00908   0.79903
    A9        0.75889  -0.00001   0.00000   0.01487   0.01415   0.77304
   A10        1.27463  -0.00010   0.00000   0.07180   0.07602   1.35065
   A11        0.79435  -0.00094   0.00000   0.01534   0.01487   0.80922
   A12        1.60059   0.00002   0.00000   0.12867   0.12831   1.72890
   A13        2.03166  -0.00015   0.00000   0.09404   0.09022   2.12187
   A14        3.14747  -0.00004   0.00000   0.05237   0.05246   3.19993
   A15        3.05605  -0.00033   0.00000   0.03443   0.03331   3.08936
    D1        2.19679   0.00079   0.00000   0.01928   0.01904   2.21583
    D2        0.53988   0.00027   0.00000   0.02857   0.02888   0.56875
    D3       -0.61840   0.00148   0.00000   0.00714   0.00765  -0.61075
    D4        2.45193   0.00063   0.00000   0.15083   0.14642   2.59835
    D5        0.54973   0.00049   0.00000  -0.00325  -0.00260   0.54712
    D6       -1.65755   0.00010   0.00000   0.01477   0.01443  -1.64312
    D7        0.55068  -0.00180   0.00000   0.12506   0.12928   0.67996
         Item               Value     Threshold  Converged?
 Maximum Force            0.002658     0.000015     NO 
 RMS     Force            0.001034     0.000010     NO 
 Maximum Displacement     0.175495     0.000060     NO 
 RMS     Displacement     0.059951     0.000040     NO 
 Predicted change in Energy=-2.360314D-04
 GradGradGradGradGradGradGradGradGradGradGradGradGradGradGradGradGradGrad

                          Input orientation:                          
 ---------------------------------------------------------------------
 Center     Atomic      Atomic             Coordinates (Angstroms)
 Number     Number       Type             X           Y           Z
 ---------------------------------------------------------------------
      1         17           0       -1.621391   -0.063302    0.002599
[...]
 Frc consts  --      0.3933                 0.5879                 0.7805
 IR Inten    --     61.3568                 0.3603                17.5567
  Atom  AN      X      Y      Z        X      Y      Z        X      Y      Z
     1  17    -0.02   0.01   0.02    -0.00   0.02  -0.01    -0.02  -0.00  -0.01
     2   6     0.04  -0.04  -0.11     0.01  -0.08   0.03    -0.04   0.00   0.01
     3   1    -0.21   0.06   0.04     0.70   0.16   0.02     0.62   0.08  -0.10
     4   1     0.91   0.11   0.22     0.01   0.19  -0.06     0.28   0.05   0.12
     5   1    -0.19  -0.02   0.02    -0.65   0.05  -0.08     0.70  -0.09  -0.03
     6   8    -0.02   0.01   0.02    -0.00  -0.00  -0.00    -0.02   0.00   0.00
     7   1     0.01  -0.01  -0.07     0.01   0.01   0.07    -0.04   0.01   0.01
                     10                     11                     12
                      A                      A                      A
 Frequencies --   1421.7261              1437.1411              3196.7226
 Red. masses --      1.0774                 1.0711                 1.0214
 Frc consts  --      1.2832                 1.3034                 6.1500
 IR Inten    --      6.2725                 3.1876                 2.5959
  Atom  AN      X      Y      Z        X      Y      Z        X      Y      Z
     1  17    -0.00  -0.00  -0.00     0.00  -0.00   0.00     0.00   0.00  -0.00
     2   6     0.00  -0.03  -0.07     0.00  -0.07   0.03    -0.03  -0.01  -0.01
     3   1     0.00   0.58   0.42    -0.23   0.15   0.24     0.12  -0.36   0.45
     4   1    -0.15   0.02  -0.14    -0.03   0.76  -0.25     0.19  -0.15  -0.47
     5   1     0.10  -0.19   0.63     0.21   0.01  -0.42     0.08   0.59   0.12
     6   8     0.00  -0.00  -0.00    -0.00  -0.00  -0.00    -0.00   0.00   0.00
     7   1     0.01  -0.00  -0.00     0.03   0.01   0.03    -0.00   0.00  -0.00
                     13                     14                     15
                      A                      A                      A
 Frequencies --   3345.5304              3371.4497              3714.8817
 Red. masses --      1.1138                 1.1151                 1.0673
 Frc consts  --      7.3446                 7.4681                 8.6784
 IR Inten    --      5.9789                17.8322                90.4521
  Atom  AN      X      Y      Z        X      Y      Z        X      Y      Z
     1  17    -0.00   0.00  -0.00    -0.00   0.00   0.00     0.00   0.00  -0.00
     2   6     0.01  -0.10   0.02     0.02  -0.01  -0.10    -0.00  -0.00   0.00
     3   1    -0.14   0.38  -0.49     0.11  -0.30   0.37    -0.00   0.01  -0.01
     4   1    -0.06   0.03   0.15    -0.32   0.24   0.73    -0.00  -0.00   0.00
     5   1     0.12   0.72   0.16     0.04   0.23   0.03    -0.00   0.01   0.00
     6   8     0.00   0.00  -0.00     0.00  -0.00  -0.00     0.00  -0.06   0.01
     7   1    -0.00  -0.01   0.00    -0.00   0.00  -0.00    -0.01   0.98  -0.18

 -------------------
 - Thermochemistry -
 -------------------
 Temperature   298.150 Kelvin.  Pressure   1.00000 Atm.
 Atom     1 has atomic number 17 and mass  34.96885
 Atom     2 has atomic number  6 and mass  12.00000
 Atom     3 has atomic number  1 and mass   1.00783
 Atom     4 has atomic number  1 and mass   1.00783
 Atom     5 has atomic number  1 and mass   1.00783
 Atom     6 has atomic number  8 and mass  15.99491
 Atom     7 has atomic number  1 and mass   1.00783
 Molecular mass:    66.99507 amu.
 Principal axes and moments of inertia in atomic units:
                           1         2         3
     Eigenvalues --    16.75689 780.04745 782.41712
           X            0.99994  -0.01105   0.00248
           Y            0.01124   0.99546  -0.09452
           Z           -0.00143   0.09454   0.99552
 This molecule is an asymmetric top.
 Rotational symmetry number  1.
 Rotational temperatures (Kelvin)      5.16885     0.11104     0.11070
 Rotational constants (GHZ):         107.70141     2.31363     2.30662
    1 imaginary frequencies ignored.
 Zero-point vibrational energy     124526.5 (Joules/Mol)
                                   29.76255 (Kcal/Mol)
 Warning -- explicit consideration of   5 degrees of freedom as
           vibrations may cause significant error
 Vibrational temperatures:    201.97   309.29   443.53   499.34   735.05
          (Kelvin)           1063.42  1367.29  1612.54  2045.54  2067.72
                             4599.37  4813.47  4850.76  5344.88
 
 Zero-point correction=                           0.047430 (Hartree/Particle)
 Thermal correction to Energy=                    0.052629
 Thermal correction to Enthalpy=                  0.053574
 Thermal correction to Gibbs Free Energy=         0.019928
 Sum of electronic and zero-point Energies=           -574.931565
 Sum of electronic and thermal Energies=              -574.926365
 Sum of electronic and thermal Enthalpies=            -574.925421
 Sum of electronic and thermal Free Energies=         -574.959067
 
                     E (Thermal)             CV                S
                      KCal/Mol        Cal/Mol-Kelvin    Cal/Mol-Kelvin
 Total                   33.025             15.803             70.813
 Electronic               0.000              0.000              0.000
 Translational            0.889              2.981             38.524
 Rotational               0.889              2.981             23.840
 Vibrational             31.248              9.842              8.449
 Vibration     1          0.615              1.913              2.799
 Vibration     2          0.645              1.818              2.001
 Vibration     3          0.698              1.658              1.372
 Vibration     4          0.725              1.581              1.180
 Vibration     5          0.866              1.226              0.631
                       Q            Log10(Q)             Ln(Q)
 Total Bot       0.681985D-09         -9.166225        -21.106013
 Total V=0       0.446529D+13         12.649849         29.127354
 Vib (Bot)       0.874043D-21        -21.058467        -48.488913
 Vib (Bot)    1  0.144839D+01          0.160887          0.370456
 Vib (Bot)    2  0.922091D+00         -0.035226         -0.081111
 Vib (Bot)    3  0.614013D+00         -0.211822         -0.487739
 Vib (Bot)    4  0.532620D+00         -0.273582         -0.629946
 Vib (Bot)    5  0.318581D+00         -0.496780         -1.143879
 Vib (V=0)       0.572278D+01          0.757607          1.744455
 Vib (V=0)    1  0.203227D+01          0.307981          0.709153
 Vib (V=0)    2  0.154893D+01          0.190031          0.437564
 Vib (V=0)    3  0.129184D+01          0.111209          0.256068
 Vib (V=0)    4  0.123054D+01          0.090095          0.207451
 Vib (V=0)    5  0.109287D+01          0.038568          0.088806
 Electronic      0.100000D+01          0.000000          0.000000
 Translational   0.215536D+08          7.333519         16.886053
 Rotational      0.362012D+05          4.558723         10.496847
 ***** Axes restored to original set *****
 -------------------------------------------------------------------
 Center     Atomic                   Forces (Hartrees/Bohr)
 Number     Number              X              Y              Z
 -------------------------------------------------------------------
      1       17           0.000000333    0.000000079   -0.000000003
      2        6          -0.000000660   -0.000000914    0.000000560
      3        1          -0.000000377    0.000000351   -0.000000189
      4        1          -0.000000074   -0.000000146   -0.000000251
      5        1           0.000000492    0.000000116    0.000000025
      6        8           0.000000759    0.000000376    0.000000004
      7        1          -0.000000473    0.000000137   -0.000000147
 -------------------------------------------------------------------
 Cartesian Forces:  Max     0.000000914 RMS     0.000000398
 FormGI is forming the generalized inverse of G from B-inverse, IUseBI=4.

 GradGradGradGradGradGradGradGradGradGradGradGradGradGradGradGradGradGrad
 Berny optimization.
 Internal  Forces:  Max     0.000000471 RMS     0.000000196
 Search for a saddle point.
 Step number   1 out of a maximum of    2
 All quantities printed in internal units (Hartrees-Bohrs-Radians)
 Swapping is turned off.
 Second derivative matrix not updated -- analytic derivatives used.
 ITU=  0
     Eigenvalues ---   -0.00645   0.00132   0.00639   0.00718   0.01041
     Eigenvalues ---    0.01549   0.05552   0.06185   0.09027   0.10071
     Eigenvalues ---    0.12723   0.31992   0.34061   0.35088   0.49505
 Eigenvectors required to have negative eigenvalues:
                          R5        R8        R7        R6        D1
   1                    0.41639   0.41463  -0.39173   0.36847  -0.34371
                          R1        A2        A15       A4        A6
   1                   -0.28652   0.18934  -0.16287  -0.12421  -0.12196
 Angle between quadratic step and forces=  56.69 degrees.
 Linear search not attempted -- option 19 set.
 Iteration  1 RMS(Cart)=  0.00001320 RMS(Int)=  0.00000000
 Iteration  2 RMS(Cart)=  0.00000000 RMS(Int)=  0.00000000
 Variable       Old X    -DE/DX   Delta X   Delta X   Delta X     New X
                                 (Linear)    (Quad)   (Total)
    R1        3.67527  -0.00000   0.00000  -0.00001  -0.00001   3.67526
    R2        2.05827  -0.00000   0.00000  -0.00000  -0.00000   2.05827
    R3        2.05755   0.00000   0.00000   0.00000   0.00000   2.05755
    R4        2.06095   0.00000   0.00000   0.00000   0.00000   2.06095
    R5        4.49538   0.00000   0.00000   0.00002   0.00002   4.49540
    R6        4.60995   0.00000   0.00000   0.00001   0.00001   4.60996
    R7        3.88317   0.00000   0.00000   0.00005   0.00005   3.88322
    R8        4.68963  -0.00000   0.00000  -0.00002  -0.00002   4.68961
    R9        1.83991  -0.00000   0.00000  -0.00000  -0.00000   1.83991
    A1        1.81929   0.00000   0.00000   0.00000   0.00000   1.81930
    A2        1.92222   0.00000   0.00000  -0.00000  -0.00000   1.92222
    A3        1.81959   0.00000   0.00000   0.00001   0.00001   1.81960
    A4        1.97613   0.00000   0.00000   0.00000   0.00000   1.97614
    A5        1.96036  -0.00000   0.00000  -0.00000  -0.00000   1.96036
    A6        1.95433  -0.00000   0.00000  -0.00001  -0.00001   1.95432
    A7        1.59093  -0.00000   0.00000  -0.00003  -0.00003   1.59090
    A8        0.81634  -0.00000   0.00000  -0.00000  -0.00000   0.81634
    A9        0.75334  -0.00000   0.00000  -0.00000  -0.00000   0.75334
   A10        1.25882  -0.00000   0.00000  -0.00001  -0.00001   1.25881
   A11        0.79839   0.00000   0.00000  -0.00000  -0.00000   0.79839
   A12        1.52670  -0.00000   0.00000  -0.00005  -0.00005   1.52665
   A13        2.00214  -0.00000   0.00000  -0.00002  -0.00002   2.00212
   A14        3.21666   0.00000   0.00000   0.00000   0.00000   3.21666
   A15        2.97269   0.00000   0.00000   0.00001   0.00001   2.97270
    D1        2.24634  -0.00000   0.00000  -0.00000  -0.00000   2.24634
    D2        0.54289   0.00000   0.00000   0.00000   0.00000   0.54289
    D3       -0.61876  -0.00000   0.00000  -0.00000  -0.00000  -0.61876
    D4        2.35560  -0.00000   0.00000  -0.00005  -0.00005   2.35555
    D5        0.54773   0.00000   0.00000   0.00000   0.00000   0.54773
    D6       -1.70115   0.00000   0.00000  -0.00003  -0.00003  -1.70118
    D7        0.45038  -0.00000   0.00000  -0.00006  -0.00006   0.45033
         Item               Value     Threshold  Converged?
 Maximum Force            0.000000     0.000015     YES
 RMS     Force            0.000000     0.000010     YES
 Maximum Displacement     0.000033     0.000060     YES
 RMS     Displacement     0.000013     0.000040     YES
 Predicted change in Energy=-3.552353D-11
 Optimization completed.
    -- Stationary point found.
                           ----------------------------
                           !   Optimized Parameters   !
                           ! (Angstroms and Degrees)  !
 --------------------------                            --------------------------
 ! Name  Definition              Value          Derivative Info.                !
 --------------------------------------------------------------------------------
 ! R1    R(1,2)                  1.9449         -DE/DX =    0.0                 !
 ! R2    R(2,3)                  1.0892         -DE/DX =    0.0                 !
 ! R3    R(2,4)                  1.0888         -DE/DX =    0.0                 !
 ! R4    R(2,5)                  1.0906         -DE/DX =    0.0                 !
 ! R5    R(2,6)                  2.3789         -DE/DX =    0.0                 !
 ! R6    R(3,6)                  2.4395         -DE/DX =    0.0                 !
 ! R7    R(4,6)                  2.0549         -DE/DX =    0.0                 !
 ! R8    R(5,6)                  2.4816         -DE/DX =    0.0                 !
 ! R9    R(6,7)                  0.9736         -DE/DX =    0.0                 !
 ! A1    A(1,2,3)              104.2377         -DE/DX =    0.0                 !
 ! A2    A(1,2,4)              110.1352         -DE/DX =    0.0                 !
 ! A3    A(1,2,5)              104.2548         -DE/DX =    0.0                 !
 ! A4    A(3,2,4)              113.2242         -DE/DX =    0.0                 !
 ! A5    A(3,2,5)              112.3204         -DE/DX =    0.0                 !
 ! A6    A(4,2,5)              111.9748         -DE/DX =    0.0                 !
 ! A7    A(2,6,7)               91.1533         -DE/DX =    0.0                 !
 ! A8    A(3,6,4)               46.7731         -DE/DX =    0.0                 !
 ! A9    A(3,6,5)               43.163          -DE/DX =    0.0                 !
 ! A10   A(3,6,7)               72.1252         -DE/DX =    0.0                 !
 ! A11   A(4,6,5)               45.7442         -DE/DX =    0.0                 !
 ! A12   A(4,6,7)               87.4732         -DE/DX =    0.0                 !
 ! A13   A(5,6,7)              114.714          -DE/DX =    0.0                 !
 ! A14   L(1,2,6,3,-1)         184.3012         -DE/DX =    0.0                 !
 ! A15   L(1,2,6,3,-2)         170.3223         -DE/DX =    0.0                 !
 ! D1    D(3,2,5,4)            128.706          -DE/DX =    0.0                 !
 ! D2    D(4,3,6,2)             31.1053         -DE/DX =    0.0                 !
 ! D3    D(5,3,6,2)            -35.4522         -DE/DX =    0.0                 !
 ! D4    D(7,3,6,2)            134.9662         -DE/DX =    0.0                 !
 ! D5    D(5,4,6,2)             31.3826         -DE/DX =    0.0                 !
 ! D6    D(7,4,6,2)            -97.4686         -DE/DX =    0.0                 !
 ! D7    D(7,5,6,2)             25.8051         -DE/DX =    0.0                 !
 --------------------------------------------------------------------------------
 GradGradGradGradGradGradGradGradGradGradGradGradGradGradGradGradGradGrad

 1\1\GINC-GRA796\Freq\RMP2-FC\CC-pVDZ\C1H4Cl1O1(1-)\RJACKSON\05-Mar-201
 9\0\\#N Geom=AllCheck Guess=TCheck SCRF=Check GenChk RMP2(FC)/CC-pVDZ 
 Freq\\OH-chloromethane_ts\\-1,1\Cl,-1.5949154587,-0.1722270499,-0.0523
 271219\C,0.3370809195,0.0375138559,0.0245526166\H,0.6248096177,-0.4666
 696977,0.9461526522\H,0.7966257219,-0.3947659299,-0.8628336615\H,0.488
 1744525,1.1162794486,0.0780272256\O,2.702458903,0.0384606828,-0.228277
 3891\H,2.7570588441,-0.8784193098,0.0947116783\\Version=EM64L-G09RevE.
 01\State=1-A\HF=-574.4872379\MP2=-574.9789947\RMSD=4.956e-10\RMSF=3.98
 3e-07\ZeroPoint=0.0474296\Thermal=0.0526294\Dipole=-2.187868,-0.360200
 9,0.3748475\DipoleDeriv=-1.9460275,-0.0022622,0.0215029,-0.1330213,-0.
 4055943,0.0011659,-0.0159228,-0.001606,-0.4025951,2.5752919,0.0605018,
 -0.0208951,0.1996334,0.0982615,-0.0320868,0.1039275,-0.0246089,0.03496
 35,-0.1011307,0.0032309,-0.045046,-0.0152444,0.0285144,0.0506764,-0.01
 01906,0.0537992,-0.0179604,0.1452794,-0.004425,0.0190621,-0.0509163,0.
 0350479,-0.0085314,-0.1207579,-0.0159089,0.0434914,-0.075474,-0.019207
 5,-0.0112852,0.0029542,-0.0569345,-0.0045959,-0.0090054,-0.0096705,0.0
 764087,-1.7656696,-0.032125,0.0398516,-0.0926708,-0.4279228,-0.1661798
 ,0.0739775,-0.1614255,-0.8609639,0.1677305,-0.005713,-0.0031903,0.0892
 652,-0.2713721,0.1595516,-0.0220282,0.1594206,0.1266557\Polar=71.15266
 11,-0.5412113,23.6511888,0.041643,-1.0769239,21.0489833\PG=C01 [X(C1H4
 Cl1O1)]\NImag=1\\0.09946118,0.01022748,0.01927798,0.00576532,0.0003530
 6,0.01799061,-0.00947911,0.00260072,0.00049535,0.09549769,-0.00019825,
 -0.03259906,-0.00061669,-0.06276401,0.62742784,-0.00211709,-0.00080211
 ,-0.03366036,-0.03419626,-0.00164274,0.64640365,-0.02213906,0.00551004
 ,-0.01416259,-0.03623242,0.04320224,-0.07103655,0.06117452,-0.00661217
 ,0.00220471,-0.00492416,0.04389983,-0.11717800,0.12731396,-0.04201139,
 0.11815856,0.00498243,-0.00203555,0.00445482,-0.07012849,0.12998242,-0
 .28348066,0.07240470,-0.13486119,0.28779916,-0.01847308,0.00264858,0.0
 0777171,-0.04851997,0.05949416,0.11053689,0.00380010,-0.00283331,-0.00
 858536,0.07218344,-0.00802764,0.00146296,0.00477193,0.06130693,-0.1017
 1179,-0.11120470,-0.00419984,0.00727715,0.01348308,-0.05877530,0.10555
 147,-0.01182089,0.00295490,0.00719260,0.11554888,-0.11120752,-0.275420
 95,0.00827500,-0.01163824,-0.01451186,-0.11164432,0.11493861,0.2830481
 1,-0.01996271,-0.01901662,-0.00153108,-0.02376380,-0.04072289,-0.00152
 581,0.00184284,0.00727690,0.00017348,0.00228181,0.00921699,0.00074580,
 0.04587853,0.00381854,0.00549922,0.00025056,-0.03895872,-0.36628180,-0
 .01499161,-0.00247330,-0.01015698,-0.00414749,-0.00364715,-0.00871257,
 0.00302763,0.04177439,0.37598738,-0.00097717,-0.00089095,0.00003700,0.
 00035726,-0.01711469,-0.04827157,0.00275332,0.02596523,0.00311524,-0.0
 0357997,-0.02452275,0.00169553,0.00159609,0.01559191,0.04450161,-0.028
 91367,-0.00050344,0.00120709,0.02218013,-0.00375857,-0.00035217,-0.007
 60563,-0.00058887,-0.00042049,-0.01059983,-0.00152515,0.00041229,-0.00
 513993,0.00046491,0.00039327,0.03738712,-0.00061550,0.00339561,0.00048
 777,-0.00285232,-0.00820584,-0.00008499,-0.00022722,-0.00070190,-0.001
 22794,0.00398697,-0.00396614,0.00208725,0.00259355,0.00262082,0.000833
 68,-0.02176532,0.44691747,0.00456403,0.00044919,0.00415172,-0.01361671
 ,0.00382106,-0.00728359,0.00030987,-0.00200543,0.00296159,0.00656316,-
 0.00029180,-0.00048124,0.00038356,0.00017558,-0.00031724,0.00761095,-0
 .15656365,0.05691964,-0.00049355,-0.00146677,0.00045420,0.00031748,0.0
 0474732,-0.00130901,-0.00084034,0.00086900,0.00157374,-0.00067247,0.00
 200402,-0.00151676,-0.00113674,-0.00097866,-0.00054281,-0.00730819,0.0
 1887984,-0.00581486,0.01013381,0.00140754,0.00075858,-0.00032247,-0.00
 323243,-0.00145135,0.00141218,0.00019946,0.00039647,-0.00119333,-0.000
 87395,0.00009892,-0.00016263,-0.00112231,0.00104393,0.00013757,0.02767
 644,-0.44006002,0.15441505,-0.02405475,0.43921346,-0.00039663,-0.00002
 854,-0.00016638,0.00153997,-0.00322184,0.00171347,0.00145624,0.0001498
 2,-0.00033829,-0.00106210,0.00282562,-0.00152219,0.00015796,0.00009342
 ,-0.00076057,-0.00885094,0.15446789,-0.05595088,0.00715550,-0.15428638
 ,0.05702484\\-0.00000033,-0.00000008,0.,0.00000066,0.00000091,-0.00000
 056,0.00000038,-0.00000035,0.00000019,0.00000007,0.00000015,0.00000025
 ,-0.00000049,-0.00000012,-0.00000003,-0.00000076,-0.00000038,0.,0.0000
 0047,-0.00000014,0.00000015\\\@


 THE TRULY SUCCESSFUL PERFORMANCE OF RESEARCHES IN
 INORGANIC CHEMISTRY IS POSSIBLE ONLY TO ONE WHO IS NOT
 ONLY A THEORETICAL CHEMIST, BUT ALSO AN ACCOMPLISHED
 ANALYST AND, MOREOVER, NOT MERELY A PRACTICALLY TRAINED,
 MECHANICAL WORKER, BUT A THINKING CREATIVE ARTIST.
   --  CLEMENS WINKLER, BER. 33, 1697(1900)
 Job cpu time:       0 days  0 hours  0 minutes 35.9 seconds.
 File lengths (MBytes):  RWF=    214 Int=      0 D2E=      0 Chk=      2 Scr=      1
 Normal termination of Gaussian 09 at Tue Mar  5 10:21:28 2019.
