 Entering Gaussian System, Link 0=g09
 Initial command:
 /opt/software/gaussian/g09.e01/l1.exe "/localscratch/rjackson.18103347.0/Gau-37575.inp" -scrdir="/localscratch/rjackson.18103347.0/"
 Entering Link 1 = /opt/software/gaussian/g09.e01/l1.exe PID=     37576.
  
 Copyright (c) 1988,1990,1992,1993,1995,1998,2003,2009,2015,
            Gaussian, Inc.  All Rights Reserved.
  
 This is part of the Gaussian(R) 09 program.  It is based on
 the Gaussian(R) 03 system (copyright 2003, Gaussian, Inc.),
 the Gaussian(R) 98 system (copyright 1998, Gaussian, Inc.),
 the Gaussian(R) 94 system (copyright 1995, Gaussian, Inc.),
 the Gaussian 92(TM) system (copyright 1992, Gaussian, Inc.),
 the Gaussian 90(TM) system (copyright 1990, Gaussian, Inc.),
 the Gaussian 88(TM) system (copyright 1988, Gaussian, Inc.),
 the Gaussian 86(TM) system (copyright 1986, Carnegie Mellon
 University), and the Gaussian 82(TM) system (copyright 1983,
 Carnegie Mellon University). Gaussian is a federally registered
 trademark of Gaussian, Inc.
  
 This software contains proprietary and confidential information,
 including trade secrets, belonging to Gaussian, Inc.
  
 This software is provided under written license and may be
 used, copied, transmitted, or stored only in accord with that
 written license.
  
 The following legend is applicable only to US Government
 contracts under FAR:
  
                    RESTRICTED RIGHTS LEGEND
  
 Use, reproduction and disclosure by the US Government is
 subject to restrictions as set forth in subparagraphs (a)
 and (c) of the Commercial Computer Software - Restricted
 Rights clause in FAR 52.227-19.
  
 Gaussian, Inc.
 340 Quinnipiac St., Bldg. 40, Wallingford CT 06492
  
  
 ---------------------------------------------------------------
 Warning -- This program may not be used in any manner that
 competes with the business of Gaussian, Inc. or will provide
 assistance to any competitor of Gaussian, Inc.  The licensee
 of this program is prohibited from giving any competitor of
 Gaussian, Inc. access to this program.  By using this program,
 the user acknowledges that Gaussian, Inc. is engaged in the
 business of creating and licensing software in the field of
 computational chemistry and represents and warrants to the
 licensee that it is not a competitor of Gaussian, Inc. and that
 it will not use this program in any manner prohibited above.
 ---------------------------------------------------------------
  

 Cite this work as:
 Gaussian 09, Revision E.01,
 M. J. Frisch, G. W. Trucks, H. B. Schlegel, G. E. Scuseria, 
 M. A. Robb, J. R. Cheeseman, G. Scalmani, V. Barone, B. Mennucci, 
 G. A. Petersson, H. Nakatsuji, M. Caricato, X. Li, H. P. Hratchian, 
 A. F. Izmaylov, J. Bloino, G. Zheng, J. L. Sonnenberg, M. Hada, 
 M. Ehara, K. Toyota, R. Fukuda, J. Hasegawa, M. Ishida, T. Nakajima, 
 Y. Honda, O. Kitao, H. Nakai, T. Vreven, J. A. Montgomery, Jr., 
 J. E. Peralta, F. Ogliaro, M. Bearpark, J. J. Heyd, E. Brothers, 
 K. N. Kudin, V. N. Staroverov, T. Keith, R. Kobayashi, J. Normand, 
 K. Raghavachari, A. Rendell, J. C. Burant, S. S. Iyengar, J. Tomasi, 
 M. Cossi, N. Rega, J. M. Millam, M. Klene, J. E. Knox, J. B. Cross, 
 V. Bakken, C. Adamo, J. Jaramillo, R. Gomperts, R. E. Stratmann, 
 O. Yazyev, A. J. Austin, R. Cammi, C. Pomelli, J. W. Ochterski, 
 R. L. Martin, K. Morokuma, V. G. Zakrzewski, G. A. Voth, 
 P. Salvador, J. J. Dannenberg, S. Dapprich, A. D. Daniels, 
 O. Farkas, J. B. Foresman, J. V. Ortiz, J. Cioslowski, 
 and D. J. Fox, Gaussian, Inc., Wallingford CT, 2013.
 
 ******************************************
 Gaussian 09:  EM64L-G09RevE.01 30-Nov-2015
                12-Mar-2019 
 ******************************************
 -----------------------------------------------------------------
 # mp2/cc-PVDZ opt(tight) integral(grid=superfine) scf(maxcyc=256)
 -----------------------------------------------------------------
 1/7=10,18=20,19=15,38=1/1,3;
 2/9=110,12=2,17=6,18=5,40=1/2;
 3/5=16,11=9,16=1,25=1,30=1,71=1,75=-7/1,2,3;
 4//1;
 5/5=2,7=256,38=5/2;
 8/6=4,10=1/1;
 9/15=2,16=-3/6;
 10/5=1/2;
 6/7=2,8=2,9=2,10=2/1;
 7/12=2/1,2,3,16;
 1/7=10,18=20,19=15/3(2);
 2/9=110/2;
 99//99;
 2/9=110/2;
 3/5=16,11=9,16=1,25=1,30=1,71=1,75=-7/1,2,3;
 4/5=5,16=3,69=1/1;
 5/5=2,7=256,38=5/2;
 8/6=4,10=1/1;
 9/15=2,16=-3/6;
 10/5=1/2;
 7/12=2/1,2,3,16;
 1/7=10,18=20,19=15/3(-8);
 2/9=110/2;
 6/7=2,8=2,9=2,10=2/1;
 99//99;
 ------------------------
 OH-chloromethane_product
 ------------------------
 Symbolic Z-matrix:
 Charge = -1 Multiplicity = 1
 Cl                   -1.11323  -0.63244  -0.38433 
 C                     0.2533    0.37184   0.48664 
 H                    -0.03757   0.21527   1.55452 
 H                     1.93966  -0.07635  -0.02462 
 H                    -0.10245   1.41086   0.27801 
 O                     2.892    -0.32945  -0.31334 
 H                     2.66322  -1.02409  -0.94497 
 
 Add virtual bond connecting atoms H4         and C2         Dist= 3.44D+00.

 GradGradGradGradGradGradGradGradGradGradGradGradGradGradGradGradGradGrad
 Berny optimization.
 Initialization pass.
                           ----------------------------
                           !    Initial Parameters    !
                           ! (Angstroms and Degrees)  !
 --------------------------                            --------------------------
 ! Name  Definition              Value          Derivative Info.                !
 --------------------------------------------------------------------------------
 ! R1    R(1,2)                  1.9065         estimate D2E/DX2                !
 ! R2    R(2,3)                  1.1178         estimate D2E/DX2                !
 ! R3    R(2,4)                  1.8183         estimate D2E/DX2                !
 ! R4    R(2,5)                  1.1179         estimate D2E/DX2                !
 ! R5    R(4,6)                  1.0268         estimate D2E/DX2                !
 ! R6    R(6,7)                  0.9663         estimate D2E/DX2                !
 ! A1    A(1,2,3)              100.1448         estimate D2E/DX2                !
 ! A2    A(1,2,4)              113.9844         estimate D2E/DX2                !
 ! A3    A(1,2,5)              100.1518         estimate D2E/DX2                !
 ! A4    A(3,2,4)              118.3876         estimate D2E/DX2                !
 ! A5    A(3,2,5)              103.0425         estimate D2E/DX2                !
 ! A6    A(4,2,5)              118.1498         estimate D2E/DX2                !
 ! A7    A(4,6,7)               98.1289         estimate D2E/DX2                !
 ! A8    L(2,4,6,7,-1)         180.0            estimate D2E/DX2                !
 ! A9    L(2,4,6,7,-2)         180.0001         estimate D2E/DX2                !
 ! D1    D(1,2,6,7)             -0.3937         estimate D2E/DX2                !
 ! D2    D(3,2,6,7)            116.9654         estimate D2E/DX2                !
 ! D3    D(5,2,6,7)           -117.5775         estimate D2E/DX2                !
 --------------------------------------------------------------------------------
 Trust Radius=3.00D-01 FncErr=1.00D-07 GrdErr=1.00D-07
 Number of steps in this run=     28 maximum allowed number of steps=    100.
 GradGradGradGradGradGradGradGradGradGradGradGradGradGradGradGradGradGrad

                          Input orientation:                          
 ---------------------------------------------------------------------
 Center     Atomic      Atomic             Coordinates (Angstroms)
 Number     Number       Type             X           Y           Z
 ---------------------------------------------------------------------
      1         17           0       -1.113228   -0.632444   -0.384326
      2          6           0        0.253298    0.371842    0.486637
      3          1           0       -0.037574    0.215268    1.554517
      4          1           0        1.939657   -0.076346   -0.024618
      5          1           0       -0.102446    1.410860    0.278012
      6          8           0        2.891996   -0.329452   -0.313339
      7          1           0        2.663217   -1.024090   -0.944974
 ---------------------------------------------------------------------
                    Distance matrix (angstroms):
                    1          2          3          4          5
     1  Cl   0.000000
     2  C    1.906452   0.000000
     3  H    2.373765   1.117806   0.000000
     4  H    3.123898   1.818258   2.547184   0.000000
     5  H    2.373913   1.117871   1.750175   2.544317   0.000000
     6  O    4.017295   2.845084   3.516815   1.026826   3.513554
     7  H    3.837870   3.131429   3.883006   1.506258   3.882469
                    6          7
     6  O    0.000000
     7  H    0.966346   0.000000
 Stoichiometry    CH4ClO(1-)
 Framework group  C1[X(CH4ClO)]
 Deg. of freedom    15
 Full point group                 C1      NOp   1
 Largest Abelian subgroup         C1      NOp   1
 Largest concise Abelian subgroup C1      NOp   1
                         Standard orientation:                         
 ---------------------------------------------------------------------
 Center     Atomic      Atomic             Coordinates (Angstroms)
 Number     Number       Type             X           Y           Z
 ---------------------------------------------------------------------
      1         17           0        1.420750   -0.341891    0.000169
      2          6           0       -0.000126    0.929200   -0.000675
      3          1           0        0.299226    1.558549   -0.874630
      4          1           0       -1.658591    0.183845    0.000178
      5          1           0        0.296454    1.556830    0.875542
      6          8           0       -2.595178   -0.237080    0.000660
      7          1           0       -2.327670   -1.165643   -0.005186
 ---------------------------------------------------------------------
 Rotational constants (GHZ):     21.9569582      2.6880771      2.4304396
 Standard basis: CC-pVDZ (5D, 7F)
 There are    69 symmetry adapted cartesian basis functions of A   symmetry.
 There are    66 symmetry adapted basis functions of A   symmetry.
    66 basis functions,   165 primitive gaussians,    69 cartesian basis functions
    18 alpha electrons       18 beta electrons
       nuclear repulsion energy        88.6529527999 Hartrees.
 NAtoms=    7 NActive=    7 NUniq=    7 SFac= 1.00D+00 NAtFMM=   60 NAOKFM=F Big=F
 Integral buffers will be    131072 words long.
 Raffenetti 1 integral format.
 Two-electron integral symmetry is turned on.
 One-electron integrals computed using PRISM.
 NBasis=    66 RedAO= T EigKep=  1.96D-02  NBF=    66
 NBsUse=    66 1.00D-06 EigRej= -1.00D+00 NBFU=    66
 ExpMin= 1.22D-01 ExpMax= 1.28D+05 ExpMxC= 1.24D+03 IAcc=3 IRadAn=         7 AccDes= 0.00D+00
 Harris functional with IExCor=  205 and IRadAn=       7 diagonalized for initial guess.
 HarFok:  IExCor=  205 AccDes= 0.00D+00 IRadAn=         7 IDoV= 1 UseB2=F ITyADJ=14
 ICtDFT=  3500011 ScaDFX=  1.000000  1.000000  1.000000  1.000000
 FoFCou: FMM=F IPFlag=           0 FMFlag=      100000 FMFlg1=           0
         NFxFlg=           0 DoJE=T BraDBF=F KetDBF=T FulRan=T
         wScrn=  0.000000 ICntrl=     500 IOpCl=  0 I1Cent=   200000004 NGrid=           0
         NMat0=    1 NMatS0=      1 NMatT0=    0 NMatD0=    1 NMtDS0=    0 NMtDT0=    0
 Petite list used in FoFCou.
 Keep R1 ints in memory in canonical form, NReq=3411411.
 Requested convergence on RMS density matrix=1.00D-08 within 256 cycles.
 Requested convergence on MAX density matrix=1.00D-06.
 Requested convergence on             energy=1.00D-06.
 No special actions if energy rises.
 SCF Done:  E(RHF) =  -574.508643768     A.U. after   13 cycles
            NFock= 13  Conv=0.34D-08     -V/T= 2.0000
 ExpMin= 1.22D-01 ExpMax= 1.28D+05 ExpMxC= 1.24D+03 IAcc=3 IRadAn=         7 AccDes= 0.00D+00
 HarFok:  IExCor=  205 AccDes= 0.00D+00 IRadAn=         7 IDoV=-2 UseB2=F ITyADJ=14
 ICtDFT= 12500011 ScaDFX=  1.000000  1.000000  1.000000  1.000000
 Range of M.O.s used for correlation:     8    66
 NBasis=    66 NAE=    18 NBE=    18 NFC=     7 NFV=     0
 NROrb=     59 NOA=    11 NOB=    11 NVA=    48 NVB=    48
 Fully direct method using O(ONN) memory.
 JobTyp=1 Pass  1:  I=   8 to  18 NPSUse=  1 ParTrn=F ParDer=F DoDerP=T.
 Spin components of T(2) and E(2):
     alpha-alpha T2 =       0.2029681190D-01 E2=     -0.6183519776D-01
     alpha-beta  T2 =       0.1200461962D+00 E2=     -0.3693272623D+00
     beta-beta   T2 =       0.2029681190D-01 E2=     -0.6183519776D-01
 ANorm=    0.1077329949D+01
 E2 =    -0.4929976578D+00 EUMP2 =    -0.57500164142573D+03
          IDoAtm=1111111
          Differentiating once with respect to electric field.
                with respect to dipole field.
          Differentiating once with respect to nuclear coordinates.
 Keep R1 ints in memory in canonical form, NReq=3353838.
          There are     1 degrees of freedom in the 1st order CPHF.  IDoFFX=0 NUNeed=     1.
 LinEq1:  Iter=  0 NonCon=     1 RMS=4.46D-03 Max=4.34D-02 NDo=     1
 AX will form     1 AO Fock derivatives at one time.
 LinEq1:  Iter=  1 NonCon=     1 RMS=1.28D-03 Max=1.35D-02 NDo=     1
 LinEq1:  Iter=  2 NonCon=     1 RMS=4.24D-04 Max=5.01D-03 NDo=     1
 LinEq1:  Iter=  3 NonCon=     1 RMS=7.12D-05 Max=6.23D-04 NDo=     1
 LinEq1:  Iter=  4 NonCon=     1 RMS=2.47D-05 Max=2.45D-04 NDo=     1
 LinEq1:  Iter=  5 NonCon=     1 RMS=7.81D-06 Max=8.41D-05 NDo=     1
 LinEq1:  Iter=  6 NonCon=     1 RMS=2.18D-06 Max=3.09D-05 NDo=     1
 LinEq1:  Iter=  7 NonCon=     1 RMS=5.70D-07 Max=7.02D-06 NDo=     1
 LinEq1:  Iter=  8 NonCon=     1 RMS=1.61D-07 Max=1.56D-06 NDo=     1
 LinEq1:  Iter=  9 NonCon=     1 RMS=3.19D-08 Max=3.31D-07 NDo=     1
 LinEq1:  Iter= 10 NonCon=     1 RMS=6.71D-09 Max=5.95D-08 NDo=     1
 LinEq1:  Iter= 11 NonCon=     1 RMS=1.30D-09 Max=9.03D-09 NDo=     1
 LinEq1:  Iter= 12 NonCon=     1 RMS=2.30D-10 Max=1.84D-09 NDo=     1
 LinEq1:  Iter= 13 NonCon=     0 RMS=5.48D-11 Max=3.88D-10 NDo=     1
 Linear equations converged to 1.000D-10 1.000D-09 after    13 iterations.
 End of Minotr F.D. properties file   721 does not exist.
 End of Minotr F.D. properties file   722 does not exist.
 End of Minotr F.D. properties file   788 does not exist.

 **********************************************************************

            Population analysis using the SCF density.

 **********************************************************************

 Orbital symmetries:
       Occupied  (A) (A) (A) (A) (A) (A) (A) (A) (A) (A) (A) (A)
                 (A) (A) (A) (A) (A) (A)
       Virtual   (A) (A) (A) (A) (A) (A) (A) (A) (A) (A) (A) (A)
                 (A) (A) (A) (A) (A) (A) (A) (A) (A) (A) (A) (A)
                 (A) (A) (A) (A) (A) (A) (A) (A) (A) (A) (A) (A)
                 (A) (A) (A) (A) (A) (A) (A) (A) (A) (A) (A) (A)
 The electronic state is 1-A.
 Alpha  occ. eigenvalues -- -104.58723 -20.32044 -11.02533 -10.31247  -7.77975
 Alpha  occ. eigenvalues --   -7.77748  -7.77735  -1.09840  -0.86280  -0.63243
 Alpha  occ. eigenvalues --   -0.44906  -0.36218  -0.33786  -0.28578  -0.26941
 Alpha  occ. eigenvalues --   -0.24337  -0.20840  -0.10721
 Alpha virt. eigenvalues --    0.36707   0.39585   0.43125   0.44798   0.60616
 Alpha virt. eigenvalues --    0.80630   0.85541   0.92484   0.94529   0.98128
 Alpha virt. eigenvalues --    0.99082   1.01343   1.05679   1.08283   1.09188
 Alpha virt. eigenvalues --    1.16627   1.18047   1.20580   1.23045   1.24335
 Alpha virt. eigenvalues --    1.38611   1.42870   1.44736   1.50661   1.59896
 Alpha virt. eigenvalues --    1.59924   1.63354   1.70687   1.73188   1.85983
 Alpha virt. eigenvalues --    1.87311   2.03962   2.17588   2.18870   2.22199
 Alpha virt. eigenvalues --    2.24662   2.31368   2.35616   2.56617   2.66166
 Alpha virt. eigenvalues --    2.86574   2.95879   2.97991   3.49488   3.52875
 Alpha virt. eigenvalues --    3.70340   4.04773   4.39302
          Condensed to atoms (all electrons):
               1          2          3          4          5          6
     1  Cl  17.440309   0.118274  -0.049775  -0.003192  -0.049736   0.001142
     2  C    0.118274   5.530171   0.374743   0.058918   0.374731  -0.062693
     3  H   -0.049775   0.374743   0.743221  -0.002672  -0.047846   0.000860
     4  H   -0.003192   0.058918  -0.002672   0.371176  -0.002698   0.365699
     5  H   -0.049736   0.374731  -0.047846  -0.002698   0.743159   0.000863
     6  O    0.001142  -0.062693   0.000860   0.365699   0.000863   7.813470
     7  H   -0.000485   0.014421  -0.000086  -0.055067  -0.000085   0.345138
               7
     1  Cl  -0.000485
     2  C    0.014421
     3  H   -0.000086
     4  H   -0.055067
     5  H   -0.000085
     6  O    0.345138
     7  H    0.597581
 Mulliken charges:
               1
     1  Cl  -0.456539
     2  C   -0.408565
     3  H   -0.018446
     4  H    0.267836
     5  H   -0.018389
     6  O   -0.464479
     7  H    0.098581
 Sum of Mulliken charges =  -1.00000
 Mulliken charges with hydrogens summed into heavy atoms:
               1
     1  Cl  -0.456539
     2  C   -0.445400
     6  O   -0.098062
 Electronic spatial extent (au):  <R**2>=            479.4700
 Charge=             -1.0000 electrons
 Dipole moment (field-independent basis, Debye):
    X=              1.6595    Y=             -0.8885    Z=             -0.0066  Tot=              1.8824
 Quadrupole moment (field-independent basis, Debye-Ang):
   XX=            -49.2525   YY=            -28.3439   ZZ=            -29.6597
   XY=              2.6849   XZ=              0.0194   YZ=              0.0155
 Traceless Quadrupole moment (field-independent basis, Debye-Ang):
   XX=            -13.5004   YY=              7.4081   ZZ=              6.0923
   XY=              2.6849   XZ=              0.0194   YZ=              0.0155
 Octapole moment (field-independent basis, Debye-Ang**2):
  XXX=             30.6350  YYY=             -9.8261  ZZZ=              0.0029  XYY=             -7.2548
  XXY=             -3.8496  XXZ=             -0.0541  XZZ=             -1.3153  YZZ=             -1.7496
  YYZ=             -0.0117  XYZ=             -0.0357
 Hexadecapole moment (field-independent basis, Debye-Ang**3):
 XXXX=           -608.0589 YYYY=           -103.0197 ZZZZ=            -38.6898 XXXY=              5.8658
 XXXZ=              0.1296 YYYX=              7.4699 YYYZ=              0.0233 ZZZX=              0.0051
 ZZZY=              0.0121 XXYY=            -83.4291 XXZZ=            -87.7594 YYZZ=            -23.9381
 XXYZ=              0.0781 YYXZ=              0.0279 ZZXY=              1.4437
 N-N= 8.865295279991D+01 E-N=-1.551959675816D+03  KE= 5.745103693315D+02
 Calling FoFJK, ICntrl=  10002127 FMM=F ISym2X=0 I1Cent= 0 IOpClX= 0 NMat=1 NMatS=1 NMatT=0.
 ***** Axes restored to original set *****
 -------------------------------------------------------------------
 Center     Atomic                   Forces (Hartrees/Bohr)
 Number     Number              X              Y              Z
 -------------------------------------------------------------------
      1       17          -0.000014915    0.000008642    0.000003917
      2        6          -0.000429593   -0.001114930   -0.001081674
      3        1           0.000010045   -0.000006652    0.000028465
      4        1           0.001733882    0.002972275    0.002710760
      5        1          -0.000011960   -0.000009196    0.000002397
      6        8          -0.001296825   -0.001865495   -0.001675329
      7        1           0.000009367    0.000015355    0.000011463
 -------------------------------------------------------------------
 Cartesian Forces:  Max     0.002972275 RMS     0.001190381

 GradGradGradGradGradGradGradGradGradGradGradGradGradGradGradGradGradGrad
 Berny optimization.
 FormGI is forming the generalized inverse of G from B-inverse, IUseBI=4.
 Internal  Forces:  Max     0.005253353 RMS     0.001258337
 Search for a local minimum.
 Step number   1 out of a maximum of   28
 All quantities printed in internal units (Hartrees-Bohrs-Radians)
 Mixed Optimization -- RFO/linear search
 Second derivative matrix not updated -- first step.
 The second derivative matrix:
                          R1        R2        R3        R4        R5
           R1           0.19250
           R2           0.00000   0.31787
           R3           0.00000   0.00000   0.05912
           R4           0.00000   0.00000   0.00000   0.31781
           R5           0.00000   0.00000   0.00000   0.00000   0.43267
           R6           0.00000   0.00000   0.00000   0.00000   0.00000
           A1           0.00000   0.00000   0.00000   0.00000   0.00000
           A2           0.00000   0.00000   0.00000   0.00000   0.00000
           A3           0.00000   0.00000   0.00000   0.00000   0.00000
           A4           0.00000   0.00000   0.00000   0.00000   0.00000
           A5           0.00000   0.00000   0.00000   0.00000   0.00000
           A6           0.00000   0.00000   0.00000   0.00000   0.00000
           A7           0.00000   0.00000   0.00000   0.00000   0.00000
           A8           0.00000   0.00000   0.00000   0.00000   0.00000
           A9           0.00000   0.00000   0.00000   0.00000   0.00000
           D1           0.00000   0.00000   0.00000   0.00000   0.00000
           D2           0.00000   0.00000   0.00000   0.00000   0.00000
           D3           0.00000   0.00000   0.00000   0.00000   0.00000
                          R6        A1        A2        A3        A4
           R6           0.54131
           A1           0.00000   0.16000
           A2           0.00000   0.00000   0.16000
           A3           0.00000   0.00000   0.00000   0.16000
           A4           0.00000   0.00000   0.00000   0.00000   0.16000
           A5           0.00000   0.00000   0.00000   0.00000   0.00000
           A6           0.00000   0.00000   0.00000   0.00000   0.00000
           A7           0.00000   0.00000   0.00000   0.00000   0.00000
           A8           0.00000   0.00000   0.00000   0.00000   0.00000
           A9           0.00000   0.00000   0.00000   0.00000   0.00000
           D1           0.00000   0.00000   0.00000   0.00000   0.00000
           D2           0.00000   0.00000   0.00000   0.00000   0.00000
           D3           0.00000   0.00000   0.00000   0.00000   0.00000
                          A5        A6        A7        A8        A9
           A5           0.16000
           A6           0.00000   0.16000
           A7           0.00000   0.00000   0.16000
           A8           0.00000   0.00000   0.00000   0.00674
           A9           0.00000   0.00000   0.00000   0.00000   0.00674
           D1           0.00000   0.00000   0.00000   0.00000   0.00000
           D2           0.00000   0.00000   0.00000   0.00000   0.00000
           D3           0.00000   0.00000   0.00000   0.00000   0.00000
                          D1        D2        D3
           D1           0.00230
           D2           0.00000   0.00230
           D3           0.00000   0.00000   0.00230
 ITU=  0
     Eigenvalues ---    0.00230   0.00648   0.00666   0.05912   0.08153
     Eigenvalues ---    0.08902   0.16000   0.16000   0.16000   0.16000
     Eigenvalues ---    0.19250   0.31781   0.31787   0.43267   0.54131
 RFO step:  Lambda=-2.92944910D-03 EMin= 2.30000000D-03
 Linear search not attempted -- first point.
 Maximum step size (   0.300) exceeded in Quadratic search.
    -- Step size scaled by   0.553
 Iteration  1 RMS(Cart)=  0.09787598 RMS(Int)=  0.02537502
 Iteration  2 RMS(Cart)=  0.05286639 RMS(Int)=  0.00198431
 Iteration  3 RMS(Cart)=  0.00203790 RMS(Int)=  0.00077909
 Iteration  4 RMS(Cart)=  0.00000117 RMS(Int)=  0.00077909
 Iteration  5 RMS(Cart)=  0.00000000 RMS(Int)=  0.00077909
 Variable       Old X    -DE/DX   Delta X   Delta X   Delta X     New X
                                 (Linear)    (Quad)   (Total)
    R1        3.60267   0.00000   0.00000   0.00001   0.00001   3.60268
    R2        2.11235   0.00003   0.00000   0.00004   0.00004   2.11239
    R3        3.43601  -0.00016   0.00000  -0.00140  -0.00136   3.43464
    R4        2.11247  -0.00001   0.00000  -0.00001  -0.00001   2.11246
    R5        1.94042  -0.00027   0.00000  -0.00034  -0.00040   1.94002
    R6        1.82613  -0.00002   0.00000  -0.00002  -0.00002   1.82611
    A1        1.74786   0.00024   0.00000   0.00089   0.00178   1.74964
    A2        1.98940   0.00034   0.00000   0.00123   0.00235   1.99176
    A3        1.74798   0.00021   0.00000   0.00081   0.00176   1.74974
    A4        2.06625  -0.00018   0.00000  -0.00065  -0.00128   2.06497
    A5        1.79843  -0.00041   0.00000  -0.00152  -0.00292   1.79551
    A6        2.06210  -0.00013   0.00000  -0.00048  -0.00109   2.06102
    A7        1.71267   0.00001   0.00000   0.00003   0.00003   1.71270
    A8        3.14159  -0.00525   0.00000  -0.29990  -0.29929   2.84230
    A9        3.14159  -0.00002   0.00000  -0.00105  -0.00104   3.14055
    D1       -0.00687   0.00001   0.00000   0.00048   0.00044  -0.00643
    D2        2.04143  -0.00043   0.00000  -0.05006  -0.05160   1.98984
    D3       -2.05211   0.00043   0.00000   0.04990   0.05147  -2.00064
         Item               Value     Threshold  Converged?
 Maximum Force            0.005253     0.000015     NO 
 RMS     Force            0.001258     0.000010     NO 
 Maximum Displacement     0.428803     0.000060     NO 
 RMS     Displacement     0.148819     0.000040     NO 
 Predicted change in Energy=-1.310601D-03
 GradGradGradGradGradGradGradGradGradGradGradGradGradGradGradGradGradGrad

                          Input orientation:                          
 ---------------------------------------------------------------------
 Center     Atomic      Atomic             Coordinates (Angstroms)
 Number     Number       Type             X           Y           Z
 ---------------------------------------------------------------------
      1         17           0       -0.973957   -0.690641   -0.446010
      2          6           0        0.291693    0.381624    0.493651
      3          1           0       -0.042420    0.207300    1.546040
      4          1           0        2.023622    0.029543    0.069512
      5          1           0       -0.107725    1.401735    0.271246
      6          8           0        2.867404   -0.374027   -0.353686
      7          1           0        2.436304   -1.019897   -0.928844
 ---------------------------------------------------------------------
                    Distance matrix (angstroms):
                    1          2          3          4          5
     1  Cl   0.000000
     2  C    1.906459   0.000000
     3  H    2.375357   1.117829   0.000000
     4  H    3.125686   1.817535   2.545636   0.000000
     5  H    2.375469   1.117867   1.748154   2.542882   0.000000
     6  O    3.855493   2.814832   3.523347   1.026613   3.520691
     7  H    3.459974   2.930378   3.711487   1.506103   3.711685
                    6          7
     6  O    0.000000
     7  H    0.966335   0.000000
 Stoichiometry    CH4ClO(1-)
 Framework group  C1[X(CH4ClO)]
 Deg. of freedom    15
 Full point group                 C1      NOp   1
 Largest Abelian subgroup         C1      NOp   1
 Largest concise Abelian subgroup C1      NOp   1
                         Standard orientation:                         
 ---------------------------------------------------------------------
 Center     Atomic      Atomic             Coordinates (Angstroms)
 Number     Number       Type             X           Y           Z
 ---------------------------------------------------------------------
      1         17           0        1.351837   -0.363713    0.000173
      2          6           0        0.010815    0.991368   -0.000598
      3          1           0        0.346764    1.603094   -0.873794
      4          1           0       -1.690706    0.352418    0.000725
      5          1           0        0.344418    1.601932    0.874358
      6          8           0       -2.502654   -0.275813    0.000561
      7          1           0       -2.025355   -1.116024   -0.005128
 ---------------------------------------------------------------------
 Rotational constants (GHZ):     19.7760881      2.9269118      2.5898102
 Standard basis: CC-pVDZ (5D, 7F)
 There are    69 symmetry adapted cartesian basis functions of A   symmetry.
 There are    66 symmetry adapted basis functions of A   symmetry.
    66 basis functions,   165 primitive gaussians,    69 cartesian basis functions
    18 alpha electrons       18 beta electrons
       nuclear repulsion energy        89.8296117997 Hartrees.
 NAtoms=    7 NActive=    7 NUniq=    7 SFac= 1.00D+00 NAtFMM=   60 NAOKFM=F Big=F
 Integral buffers will be    131072 words long.
 Raffenetti 1 integral format.
 Two-electron integral symmetry is turned on.
 One-electron integrals computed using PRISM.
 NBasis=    66 RedAO= T EigKep=  1.96D-02  NBF=    66
 NBsUse=    66 1.00D-06 EigRej= -1.00D+00 NBFU=    66
 Initial guess from the checkpoint file:  "/localscratch/rjackson.18103347.0/Gau-37576.chk"
 B after Tr=     0.000000    0.000000   -0.000000
         Rot=    1.000000   -0.000009    0.000010    0.000786 Ang=  -0.09 deg.
 ExpMin= 1.22D-01 ExpMax= 1.28D+05 ExpMxC= 1.24D+03 IAcc=3 IRadAn=         5 AccDes= 0.00D+00
 Harris functional with IExCor=  205 and IRadAn=       5 diagonalized for initial guess.
 HarFok:  IExCor=  205 AccDes= 0.00D+00 IRadAn=         5 IDoV= 1 UseB2=F ITyADJ=14
 ICtDFT=  3500011 ScaDFX=  1.000000  1.000000  1.000000  1.000000
 FoFCou: FMM=F IPFlag=           0 FMFlag=      100000 FMFlg1=           0
         NFxFlg=           0 DoJE=T BraDBF=F KetDBF=T FulRan=T
         wScrn=  0.000000 ICntrl=     500 IOpCl=  0 I1Cent=   200000004 NGrid=           0
         NMat0=    1 NMatS0=      1 NMatT0=    0 NMatD0=    1 NMtDS0=    0 NMtDT0=    0
 Petite list used in FoFCou.
 Keep R1 ints in memory in canonical form, NReq=3411870.
 Requested convergence on RMS density matrix=1.00D-08 within 256 cycles.
 Requested convergence on MAX density matrix=1.00D-06.
 Requested convergence on             energy=1.00D-06.
 No special actions if energy rises.
 SCF Done:  E(RHF) =  -574.508098853     A.U. after   13 cycles
            NFock= 13  Conv=0.74D-08     -V/T= 2.0000
 ExpMin= 1.22D-01 ExpMax= 1.28D+05 ExpMxC= 1.24D+03 IAcc=3 IRadAn=         7 AccDes= 0.00D+00
 HarFok:  IExCor=  205 AccDes= 0.00D+00 IRadAn=         7 IDoV=-2 UseB2=F ITyADJ=14
 ICtDFT= 12500011 ScaDFX=  1.000000  1.000000  1.000000  1.000000
 Range of M.O.s used for correlation:     8    66
 NBasis=    66 NAE=    18 NBE=    18 NFC=     7 NFV=     0
 NROrb=     59 NOA=    11 NOB=    11 NVA=    48 NVB=    48
 Fully direct method using O(ONN) memory.
 JobTyp=1 Pass  1:  I=   8 to  18 NPSUse=  1 ParTrn=F ParDer=F DoDerP=T.
 Spin components of T(2) and E(2):
     alpha-alpha T2 =       0.2033413953D-01 E2=     -0.6190762187D-01
     alpha-beta  T2 =       0.1201095198D+00 E2=     -0.3694872031D+00
     beta-beta   T2 =       0.2033413953D-01 E2=     -0.6190762187D-01
 ANorm=    0.1077393985D+01
 E2 =    -0.4933024469D+00 EUMP2 =    -0.57500140130023D+03
          IDoAtm=1111111
          Differentiating once with respect to electric field.
                with respect to dipole field.
          Differentiating once with respect to nuclear coordinates.
 Keep R1 ints in memory in canonical form, NReq=3354206.
          There are     1 degrees of freedom in the 1st order CPHF.  IDoFFX=0 NUNeed=     1.
 LinEq1:  Iter=  0 NonCon=     1 RMS=4.47D-03 Max=3.86D-02 NDo=     1
 AX will form     1 AO Fock derivatives at one time.
 LinEq1:  Iter=  1 NonCon=     1 RMS=1.29D-03 Max=1.36D-02 NDo=     1
 LinEq1:  Iter=  2 NonCon=     1 RMS=4.28D-04 Max=4.89D-03 NDo=     1
 LinEq1:  Iter=  3 NonCon=     1 RMS=7.28D-05 Max=6.56D-04 NDo=     1
 LinEq1:  Iter=  4 NonCon=     1 RMS=2.57D-05 Max=2.66D-04 NDo=     1
 LinEq1:  Iter=  5 NonCon=     1 RMS=7.92D-06 Max=7.46D-05 NDo=     1
 LinEq1:  Iter=  6 NonCon=     1 RMS=2.15D-06 Max=2.77D-05 NDo=     1
 LinEq1:  Iter=  7 NonCon=     1 RMS=5.53D-07 Max=7.14D-06 NDo=     1
 LinEq1:  Iter=  8 NonCon=     1 RMS=1.60D-07 Max=1.58D-06 NDo=     1
 LinEq1:  Iter=  9 NonCon=     1 RMS=3.15D-08 Max=3.93D-07 NDo=     1
 LinEq1:  Iter= 10 NonCon=     1 RMS=6.57D-09 Max=6.70D-08 NDo=     1
 LinEq1:  Iter= 11 NonCon=     1 RMS=1.33D-09 Max=9.81D-09 NDo=     1
 LinEq1:  Iter= 12 NonCon=     1 RMS=2.28D-10 Max=1.72D-09 NDo=     1
 LinEq1:  Iter= 13 NonCon=     0 RMS=5.49D-11 Max=4.12D-10 NDo=     1
 Linear equations converged to 1.000D-10 1.000D-09 after    13 iterations.
 End of Minotr F.D. properties file   721 does not exist.
 End of Minotr F.D. properties file   722 does not exist.
 End of Minotr F.D. properties file   788 does not exist.
 Calling FoFJK, ICntrl=  10002127 FMM=F ISym2X=0 I1Cent= 0 IOpClX= 0 NMat=1 NMatS=1 NMatT=0.
 ***** Axes restored to original set *****
 -------------------------------------------------------------------
 Center     Atomic                   Forces (Hartrees/Bohr)
 Number     Number              X              Y              Z
 -------------------------------------------------------------------
      1       17           0.001548596    0.000231450    0.000133771
      2        6          -0.000556115    0.002956071    0.002750393
      3        1          -0.000890233   -0.000166551    0.000085575
      4        1          -0.001242985   -0.008015644   -0.007374062
      5        1          -0.000925365    0.000006741   -0.000115938
      6        8           0.004268897    0.002957872    0.002519112
      7        1          -0.002202795    0.002030061    0.002001149
 -------------------------------------------------------------------
 Cartesian Forces:  Max     0.008015644 RMS     0.002986063

 GradGradGradGradGradGradGradGradGradGradGradGradGradGradGradGradGradGrad
 Berny optimization.
 Using GEDIIS/GDIIS optimizer.
 FormGI is forming the generalized inverse of G from B-inverse, IUseBI=4.
 Internal  Forces:  Max     0.007309074 RMS     0.002585624
 Search for a local minimum.
 Step number   2 out of a maximum of   28
 All quantities printed in internal units (Hartrees-Bohrs-Radians)
 Mixed Optimization -- RFO/linear search
 Update second derivatives using D2CorX and points    2    1
 DE=  2.40D-04 DEPred=-1.31D-03 R=-1.83D-01
 Trust test=-1.83D-01 RLast= 3.08D-01 DXMaxT set to 1.50D-01
 The second derivative matrix:
                          R1        R2        R3        R4        R5
           R1           0.19290
           R2          -0.00011   0.31791
           R3          -0.00072   0.00021   0.06040
           R4          -0.00012   0.00003   0.00021   0.31784
           R5           0.00061  -0.00017  -0.00112  -0.00018   0.43355
           R6           0.00050  -0.00014  -0.00091  -0.00015   0.00077
           A1           0.00009  -0.00003  -0.00012  -0.00002   0.00021
           A2           0.00128  -0.00037  -0.00225  -0.00038   0.00206
           A3           0.00008  -0.00003  -0.00011  -0.00002   0.00021
           A4          -0.00058   0.00017   0.00101   0.00017  -0.00094
           A5          -0.00018   0.00006   0.00027   0.00005  -0.00041
           A6          -0.00058   0.00017   0.00102   0.00017  -0.00093
           A7           0.00194  -0.00055  -0.00347  -0.00057   0.00296
           A8          -0.00409   0.00120   0.00709   0.00121  -0.00683
           A9          -0.00001   0.00000   0.00001   0.00000  -0.00001
           D1          -0.00000   0.00000   0.00000   0.00000  -0.00000
           D2           0.00003  -0.00001  -0.00008  -0.00001   0.00002
           D3          -0.00004   0.00001   0.00008   0.00001  -0.00002
                          R6        A1        A2        A3        A4
           R6           0.54194
           A1           0.00012   0.15989
           A2           0.00162   0.00011   0.16387
           A3           0.00011  -0.00011   0.00010   0.15989
           A4          -0.00073  -0.00003  -0.00172  -0.00003   0.16076
           A5          -0.00024   0.00018  -0.00030   0.00017   0.00011
           A6          -0.00073  -0.00005  -0.00175  -0.00004   0.00078
           A7           0.00243   0.00042   0.00619   0.00040  -0.00279
           A8          -0.00519   0.00003  -0.01188   0.00006   0.00524
           A9          -0.00001   0.00000  -0.00002   0.00000   0.00001
           D1          -0.00000  -0.00000  -0.00000  -0.00000   0.00000
           D2           0.00004   0.00006   0.00018   0.00006  -0.00009
           D3          -0.00005  -0.00006  -0.00019  -0.00006   0.00009
                          A5        A6        A7        A8        A9
           A5           0.15973
           A6           0.00013   0.16079
           A7          -0.00087  -0.00280   0.16935
           A8           0.00033   0.00536  -0.01977   0.04207
           A9          -0.00000   0.00001  -0.00003   0.00005   0.00674
           D1           0.00000   0.00000  -0.00000   0.00001   0.00000
           D2          -0.00010  -0.00008   0.00016  -0.00073  -0.00000
           D3           0.00011   0.00009  -0.00018   0.00077   0.00000
                          D1        D2        D3
           D1           0.00230
           D2           0.00000   0.00228
           D3          -0.00000   0.00002   0.00228
 ITU= -1  0
 Use linear search instead of GDIIS.
     Eigenvalues ---    0.00230   0.00665   0.03120   0.06033   0.08502
     Eigenvalues ---    0.09349   0.16000   0.16000   0.16000   0.17661
     Eigenvalues ---    0.19356   0.31783   0.31794   0.43365   0.54203
 RFO step:  Lambda=-8.68976283D-05 EMin= 2.29999652D-03
 Quartic linear search produced a step of -0.56083.
 Iteration  1 RMS(Cart)=  0.07102784 RMS(Int)=  0.00348682
 Iteration  2 RMS(Cart)=  0.00428223 RMS(Int)=  0.00027475
 Iteration  3 RMS(Cart)=  0.00000127 RMS(Int)=  0.00027475
 Iteration  4 RMS(Cart)=  0.00000000 RMS(Int)=  0.00027475
 Variable       Old X    -DE/DX   Delta X   Delta X   Delta X     New X
                                 (Linear)    (Quad)   (Total)
    R1        3.60268  -0.00122  -0.00001  -0.00278  -0.00279   3.59990
    R2        2.11239   0.00037  -0.00002   0.00056   0.00054   2.11293
    R3        3.43464   0.00205   0.00077   0.01349   0.01425   3.44889
    R4        2.11246   0.00036   0.00001   0.00049   0.00049   2.11296
    R5        1.94002  -0.00215   0.00023  -0.00251  -0.00227   1.93775
    R6        1.82611  -0.00157   0.00001  -0.00129  -0.00128   1.82483
    A1        1.74964  -0.00003  -0.00100  -0.00096  -0.00228   1.74736
    A2        1.99176  -0.00359  -0.00132  -0.01075  -0.01248   1.97927
    A3        1.74974  -0.00004  -0.00099  -0.00104  -0.00239   1.74734
    A4        2.06497   0.00159   0.00072   0.00489   0.00580   2.07077
    A5        1.79551   0.00015   0.00164   0.00155   0.00367   1.79918
    A6        2.06102   0.00165   0.00061   0.00525   0.00602   2.06704
    A7        1.71270  -0.00593  -0.00002  -0.01625  -0.01627   1.69644
    A8        2.84230   0.00731   0.16785  -0.01617   0.15148   2.99378
    A9        3.14055   0.00000   0.00058  -0.00135  -0.00077   3.13978
    D1       -0.00643   0.00001  -0.00025   0.00118   0.00097  -0.00547
    D2        1.98984  -0.00054   0.02894  -0.00879   0.02068   2.01052
    D3       -2.00064   0.00055  -0.02887   0.01153  -0.01790  -2.01855
         Item               Value     Threshold  Converged?
 Maximum Force            0.007309     0.000015     NO 
 RMS     Force            0.002586     0.000010     NO 
 Maximum Displacement     0.198214     0.000060     NO 
 RMS     Displacement     0.069517     0.000040     NO 
 Predicted change in Energy=-4.115466D-04
 GradGradGradGradGradGradGradGradGradGradGradGradGradGradGradGradGradGrad

                          Input orientation:                          
 ---------------------------------------------------------------------
 Center     Atomic      Atomic             Coordinates (Angstroms)
 Number     Number       Type             X           Y           Z
 ---------------------------------------------------------------------
      1         17           0       -1.033065   -0.664384   -0.418053
      2          6           0        0.271247    0.381672    0.494907
      3          1           0       -0.047388    0.212912    1.553288
      4          1           0        1.986627   -0.024496    0.022252
      5          1           0       -0.112333    1.408832    0.275775
      6          8           0        2.888638   -0.354736   -0.336615
      7          1           0        2.541194   -1.024163   -0.939644
 ---------------------------------------------------------------------
                    Distance matrix (angstroms):
                    1          2          3          4          5
     1  Cl   0.000000
     2  C    1.904983   0.000000
     3  H    2.372212   1.118114   0.000000
     4  H    3.117990   1.825076   2.556883   0.000000
     5  H    2.372208   1.118128   1.751137   2.554278   0.000000
     6  O    3.934751   2.843319   3.537542   1.025411   3.534264
     7  H    3.629990   3.031002   3.800766   1.494029   3.799726
                    6          7
     6  O    0.000000
     7  H    0.965656   0.000000
 Stoichiometry    CH4ClO(1-)
 Framework group  C1[X(CH4ClO)]
 Deg. of freedom    15
 Full point group                 C1      NOp   1
 Largest Abelian subgroup         C1      NOp   1
 Largest concise Abelian subgroup C1      NOp   1
                         Standard orientation:                         
 ---------------------------------------------------------------------
 Center     Atomic      Atomic             Coordinates (Angstroms)
 Number     Number       Type             X           Y           Z
 ---------------------------------------------------------------------
      1         17           0        1.381707   -0.357027    0.000135
      2          6           0        0.014157    0.969158   -0.000558
      3          1           0        0.338988    1.585772   -0.874886
      4          1           0       -1.672288    0.271442   -0.000269
      5          1           0        0.336166    1.583757    0.876247
      6          8           0       -2.551742   -0.255841    0.000524
      7          1           0       -2.162891   -1.139733   -0.004228
 ---------------------------------------------------------------------
 Rotational constants (GHZ):     20.5516937      2.8077948      2.5081897
 Standard basis: CC-pVDZ (5D, 7F)
 There are    69 symmetry adapted cartesian basis functions of A   symmetry.
 There are    66 symmetry adapted basis functions of A   symmetry.
    66 basis functions,   165 primitive gaussians,    69 cartesian basis functions
    18 alpha electrons       18 beta electrons
       nuclear repulsion energy        89.2284241304 Hartrees.
 NAtoms=    7 NActive=    7 NUniq=    7 SFac= 1.00D+00 NAtFMM=   60 NAOKFM=F Big=F
 Integral buffers will be    131072 words long.
 Raffenetti 1 integral format.
 Two-electron integral symmetry is turned on.
 One-electron integrals computed using PRISM.
 NBasis=    66 RedAO= T EigKep=  1.96D-02  NBF=    66
 NBsUse=    66 1.00D-06 EigRej= -1.00D+00 NBFU=    66
 Lowest energy guess from the checkpoint file:  "/localscratch/rjackson.18103347.0/Gau-37576.chk"
 B after Tr=     0.000000    0.000000    0.000000
         Rot=    0.999999   -0.000040    0.000008    0.001468 Ang=  -0.17 deg.
 B after Tr=    -0.000000   -0.000000    0.000000
         Rot=    1.000000   -0.000030   -0.000001    0.000726 Ang=  -0.08 deg.
 Keep R1 ints in memory in canonical form, NReq=3411646.
 Requested convergence on RMS density matrix=1.00D-08 within 256 cycles.
 Requested convergence on MAX density matrix=1.00D-06.
 Requested convergence on             energy=1.00D-06.
 No special actions if energy rises.
 SCF Done:  E(RHF) =  -574.508936485     A.U. after   11 cycles
            NFock= 11  Conv=0.53D-08     -V/T= 2.0000
 ExpMin= 1.22D-01 ExpMax= 1.28D+05 ExpMxC= 1.24D+03 IAcc=3 IRadAn=         7 AccDes= 0.00D+00
 HarFok:  IExCor=  205 AccDes= 0.00D+00 IRadAn=         7 IDoV=-2 UseB2=F ITyADJ=14
 ICtDFT= 12500011 ScaDFX=  1.000000  1.000000  1.000000  1.000000
 Range of M.O.s used for correlation:     8    66
 NBasis=    66 NAE=    18 NBE=    18 NFC=     7 NFV=     0
 NROrb=     59 NOA=    11 NOB=    11 NVA=    48 NVB=    48
 Fully direct method using O(ONN) memory.
 JobTyp=1 Pass  1:  I=   8 to  18 NPSUse=  1 ParTrn=F ParDer=F DoDerP=T.
 Spin components of T(2) and E(2):
     alpha-alpha T2 =       0.2031043872D-01 E2=     -0.6186713292D-01
     alpha-beta  T2 =       0.1200540307D+00 E2=     -0.3693861897D+00
     beta-beta   T2 =       0.2031043872D-01 E2=     -0.6186713292D-01
 ANorm=    0.1077346234D+01
 E2 =    -0.4931204555D+00 EUMP2 =    -0.57500205694025D+03
          IDoAtm=1111111
          Differentiating once with respect to electric field.
                with respect to dipole field.
          Differentiating once with respect to nuclear coordinates.
 Keep R1 ints in memory in canonical form, NReq=3354066.
          There are     1 degrees of freedom in the 1st order CPHF.  IDoFFX=0 NUNeed=     1.
 LinEq1:  Iter=  0 NonCon=     1 RMS=4.45D-03 Max=4.11D-02 NDo=     1
 AX will form     1 AO Fock derivatives at one time.
 LinEq1:  Iter=  1 NonCon=     1 RMS=1.29D-03 Max=1.37D-02 NDo=     1
 LinEq1:  Iter=  2 NonCon=     1 RMS=4.25D-04 Max=4.98D-03 NDo=     1
 LinEq1:  Iter=  3 NonCon=     1 RMS=7.20D-05 Max=6.42D-04 NDo=     1
 LinEq1:  Iter=  4 NonCon=     1 RMS=2.51D-05 Max=2.57D-04 NDo=     1
 LinEq1:  Iter=  5 NonCon=     1 RMS=7.86D-06 Max=7.96D-05 NDo=     1
 LinEq1:  Iter=  6 NonCon=     1 RMS=2.16D-06 Max=2.94D-05 NDo=     1
 LinEq1:  Iter=  7 NonCon=     1 RMS=5.62D-07 Max=7.02D-06 NDo=     1
 LinEq1:  Iter=  8 NonCon=     1 RMS=1.61D-07 Max=1.56D-06 NDo=     1
 LinEq1:  Iter=  9 NonCon=     1 RMS=3.16D-08 Max=3.66D-07 NDo=     1
 LinEq1:  Iter= 10 NonCon=     1 RMS=6.67D-09 Max=6.47D-08 NDo=     1
 LinEq1:  Iter= 11 NonCon=     1 RMS=1.32D-09 Max=9.33D-09 NDo=     1
 LinEq1:  Iter= 12 NonCon=     1 RMS=2.30D-10 Max=1.78D-09 NDo=     1
 LinEq1:  Iter= 13 NonCon=     0 RMS=5.52D-11 Max=3.70D-10 NDo=     1
 Linear equations converged to 1.000D-10 1.000D-09 after    13 iterations.
 End of Minotr F.D. properties file   721 does not exist.
 End of Minotr F.D. properties file   722 does not exist.
 End of Minotr F.D. properties file   788 does not exist.
 Calling FoFJK, ICntrl=  10002127 FMM=F ISym2X=0 I1Cent= 0 IOpClX= 0 NMat=1 NMatS=1 NMatT=0.
 ***** Axes restored to original set *****
 -------------------------------------------------------------------
 Center     Atomic                   Forces (Hartrees/Bohr)
 Number     Number              X              Y              Z
 -------------------------------------------------------------------
      1       17           0.000374649   -0.000255623   -0.000255997
      2        6           0.000080632    0.000666065    0.000605203
      3        1          -0.000231061    0.000209984   -0.000103162
      4        1           0.000449089   -0.000894668   -0.000884899
      5        1          -0.000224057   -0.000108457    0.000235167
      6        8          -0.000025953    0.000594684    0.000587392
      7        1          -0.000423299   -0.000211984   -0.000183703
 -------------------------------------------------------------------
 Cartesian Forces:  Max     0.000894668 RMS     0.000439449

 GradGradGradGradGradGradGradGradGradGradGradGradGradGradGradGradGradGrad
 Berny optimization.
 Using GEDIIS/GDIIS optimizer.
 FormGI is forming the generalized inverse of G from B-inverse, IUseBI=4.
 Internal  Forces:  Max     0.001451525 RMS     0.000489556
 Search for a local minimum.
 Step number   3 out of a maximum of   28
 All quantities printed in internal units (Hartrees-Bohrs-Radians)
 Mixed Optimization -- En-DIIS/RFO-DIIS
 Update second derivatives using D2CorX and points    2    1    3
 DE= -4.16D-04 DEPred=-4.12D-04 R= 1.01D+00
 TightC=F SS=  1.41D+00  RLast= 1.57D-01 DXNew= 2.5227D-01 4.6988D-01
 Trust test= 1.01D+00 RLast= 1.57D-01 DXMaxT set to 2.52D-01
 The second derivative matrix:
                          R1        R2        R3        R4        R5
           R1           0.19293
           R2          -0.00018   0.31796
           R3          -0.00053   0.00019   0.05995
           R4          -0.00019   0.00008   0.00021   0.31789
           R5           0.00008  -0.00005  -0.00015  -0.00011   0.43159
           R6           0.00092  -0.00041  -0.00099  -0.00039   0.00051
           A1           0.00011  -0.00007  -0.00003  -0.00007  -0.00005
           A2          -0.00036   0.00021  -0.00004   0.00007  -0.00192
           A3           0.00011  -0.00007  -0.00001  -0.00007  -0.00010
           A4           0.00010  -0.00006   0.00006  -0.00000   0.00079
           A5          -0.00009   0.00006   0.00002   0.00006   0.00013
           A6           0.00012  -0.00006   0.00002  -0.00000   0.00091
           A7           0.00155  -0.00063  -0.00208  -0.00071  -0.00028
           A8          -0.00389   0.00076   0.00827   0.00074  -0.01037
           A9           0.00001  -0.00001   0.00000  -0.00001  -0.00001
           D1           0.00001  -0.00000  -0.00001  -0.00000   0.00001
           D2           0.00018  -0.00007  -0.00021  -0.00007   0.00020
           D3          -0.00018   0.00007   0.00021   0.00007  -0.00020
                          R6        A1        A2        A3        A4
           R6           0.54325
           A1           0.00036   0.15991
           A2          -0.00046  -0.00075   0.15760
           A3           0.00037  -0.00009  -0.00087   0.15991
           A4           0.00007   0.00032   0.00113   0.00037   0.15948
           A5          -0.00034   0.00021   0.00100   0.00022  -0.00044
           A6           0.00005   0.00031   0.00137   0.00037  -0.00062
           A7           0.00339   0.00027  -0.00198   0.00021   0.00065
           A8          -0.00245   0.00019  -0.02265   0.00021   0.00967
           A9           0.00005   0.00001  -0.00008   0.00002   0.00003
           D1           0.00001   0.00000   0.00001   0.00000  -0.00001
           D2           0.00033   0.00014   0.00024   0.00015  -0.00014
           D3          -0.00033  -0.00014  -0.00024  -0.00015   0.00013
                          A5        A6        A7        A8        A9
           A5           0.15960
           A6          -0.00044   0.15928
           A7          -0.00015   0.00080   0.16541
           A8           0.00092   0.00993  -0.02224   0.04184
           A9          -0.00001   0.00003   0.00003   0.00019   0.00674
           D1          -0.00000  -0.00001   0.00003   0.00005   0.00000
           D2          -0.00019  -0.00015   0.00073   0.00022   0.00001
           D3           0.00019   0.00014  -0.00074  -0.00017  -0.00001
                          D1        D2        D3
           D1           0.00230
           D2           0.00000   0.00231
           D3          -0.00000  -0.00002   0.00232
 ITU=  1 -1  0
 Use linear search instead of GDIIS.
     Eigenvalues ---    0.00230   0.00666   0.02638   0.06056   0.08695
     Eigenvalues ---    0.09202   0.15996   0.16000   0.16240   0.16974
     Eigenvalues ---    0.19322   0.31783   0.31802   0.43178   0.54331
 RFO step:  Lambda=-3.22926262D-05 EMin= 2.29981259D-03
 Quartic linear search produced a step of  0.04722.
 Iteration  1 RMS(Cart)=  0.01430996 RMS(Int)=  0.00011251
 Iteration  2 RMS(Cart)=  0.00010586 RMS(Int)=  0.00003176
 Iteration  3 RMS(Cart)=  0.00000000 RMS(Int)=  0.00003176
 Variable       Old X    -DE/DX   Delta X   Delta X   Delta X     New X
                                 (Linear)    (Quad)   (Total)
    R1        3.59990   0.00001  -0.00013  -0.00006  -0.00020   3.59970
    R2        2.11293  -0.00006   0.00003  -0.00020  -0.00017   2.11275
    R3        3.44889   0.00024   0.00061   0.00496   0.00557   3.45446
    R4        2.11296  -0.00007   0.00002  -0.00022  -0.00020   2.11275
    R5        1.93775  -0.00067  -0.00013  -0.00179  -0.00192   1.93583
    R6        1.82483   0.00041  -0.00006   0.00080   0.00074   1.82557
    A1        1.74736   0.00035  -0.00002   0.00113   0.00113   1.74849
    A2        1.97927  -0.00145  -0.00048  -0.01200  -0.01244   1.96683
    A3        1.74734   0.00035  -0.00003   0.00117   0.00117   1.74852
    A4        2.07077   0.00055   0.00021   0.00478   0.00496   2.07572
    A5        1.79918  -0.00039   0.00004  -0.00074  -0.00077   1.79841
    A6        2.06704   0.00058   0.00023   0.00501   0.00522   2.07225
    A7        1.69644  -0.00054  -0.00077  -0.00433  -0.00510   1.69134
    A8        2.99378   0.00011  -0.00698  -0.00623  -0.01318   2.98060
    A9        3.13978   0.00002  -0.00009   0.00369   0.00360   3.14339
    D1       -0.00547   0.00001   0.00007   0.00207   0.00212  -0.00334
    D2        2.01052  -0.00031  -0.00146  -0.00478  -0.00630   2.00422
    D3       -2.01855   0.00031   0.00159   0.00750   0.00915  -2.00940
         Item               Value     Threshold  Converged?
 Maximum Force            0.001452     0.000015     NO 
 RMS     Force            0.000490     0.000010     NO 
 Maximum Displacement     0.037963     0.000060     NO 
 RMS     Displacement     0.014324     0.000040     NO 
 Predicted change in Energy=-1.704117D-05
 GradGradGradGradGradGradGradGradGradGradGradGradGradGradGradGradGradGrad

                          Input orientation:                          
 ---------------------------------------------------------------------
 Center     Atomic      Atomic             Coordinates (Angstroms)
 Number     Number       Type             X           Y           Z
 ---------------------------------------------------------------------
      1         17           0       -1.012976   -0.671232   -0.425304
      2          6           0        0.273896    0.386363    0.498828
      3          1           0       -0.050860    0.214759    1.554791
      4          1           0        1.992020   -0.020001    0.024923
      5          1           0       -0.116607    1.410441    0.278044
      6          8           0        2.886748   -0.360205   -0.339917
      7          1           0        2.522699   -1.024487   -0.939456
 ---------------------------------------------------------------------
                    Distance matrix (angstroms):
                    1          2          3          4          5
     1  Cl   0.000000
     2  C    1.904879   0.000000
     3  H    2.373062   1.118022   0.000000
     4  H    3.107540   1.828023   2.562999   0.000000
     5  H    2.373086   1.118022   1.750446   2.560573   0.000000
     6  O    3.913039   2.843916   3.542604   1.024396   3.540791
     7  H    3.590284   3.019317   3.792124   1.490181   3.791716
                    6          7
     6  O    0.000000
     7  H    0.966049   0.000000
 Stoichiometry    CH4ClO(1-)
 Framework group  C1[X(CH4ClO)]
 Deg. of freedom    15
 Full point group                 C1      NOp   1
 Largest Abelian subgroup         C1      NOp   1
 Largest concise Abelian subgroup C1      NOp   1
                         Standard orientation:                         
 ---------------------------------------------------------------------
 Center     Atomic      Atomic             Coordinates (Angstroms)
 Number     Number       Type             X           Y           Z
 ---------------------------------------------------------------------
      1         17           0        1.371262   -0.361676    0.000091
      2          6           0        0.019539    0.980489   -0.000392
      3          1           0        0.350074    1.593538   -0.874972
      4          1           0       -1.669184    0.280576    0.001208
      5          1           0        0.348451    1.592576    0.875472
      6          8           0       -2.540411   -0.258267    0.000222
      7          1           0       -2.134745   -1.135009   -0.002669
 ---------------------------------------------------------------------
 Rotational constants (GHZ):     20.1867236      2.8398941      2.5281066
 Standard basis: CC-pVDZ (5D, 7F)
 There are    69 symmetry adapted cartesian basis functions of A   symmetry.
 There are    66 symmetry adapted basis functions of A   symmetry.
    66 basis functions,   165 primitive gaussians,    69 cartesian basis functions
    18 alpha electrons       18 beta electrons
       nuclear repulsion energy        89.3647113336 Hartrees.
 NAtoms=    7 NActive=    7 NUniq=    7 SFac= 1.00D+00 NAtFMM=   60 NAOKFM=F Big=F
 Integral buffers will be    131072 words long.
 Raffenetti 1 integral format.
 Two-electron integral symmetry is turned on.
 One-electron integrals computed using PRISM.
 NBasis=    66 RedAO= T EigKep=  1.96D-02  NBF=    66
 NBsUse=    66 1.00D-06 EigRej= -1.00D+00 NBFU=    66
 Initial guess from the checkpoint file:  "/localscratch/rjackson.18103347.0/Gau-37576.chk"
 B after Tr=    -0.000000   -0.000000   -0.000000
         Rot=    1.000000    0.000053   -0.000010    0.000732 Ang=   0.08 deg.
 ExpMin= 1.22D-01 ExpMax= 1.28D+05 ExpMxC= 1.24D+03 IAcc=3 IRadAn=         5 AccDes= 0.00D+00
 Harris functional with IExCor=  205 and IRadAn=       5 diagonalized for initial guess.
 HarFok:  IExCor=  205 AccDes= 0.00D+00 IRadAn=         5 IDoV= 1 UseB2=F ITyADJ=14
 ICtDFT=  3500011 ScaDFX=  1.000000  1.000000  1.000000  1.000000
 FoFCou: FMM=F IPFlag=           0 FMFlag=      100000 FMFlg1=           0
         NFxFlg=           0 DoJE=T BraDBF=F KetDBF=T FulRan=T
         wScrn=  0.000000 ICntrl=     500 IOpCl=  0 I1Cent=   200000004 NGrid=           0
         NMat0=    1 NMatS0=      1 NMatT0=    0 NMatD0=    1 NMtDS0=    0 NMtDT0=    0
 Petite list used in FoFCou.
 Keep R1 ints in memory in canonical form, NReq=3411730.
 Requested convergence on RMS density matrix=1.00D-08 within 256 cycles.
 Requested convergence on MAX density matrix=1.00D-06.
 Requested convergence on             energy=1.00D-06.
 No special actions if energy rises.
 SCF Done:  E(RHF) =  -574.508967653     A.U. after   11 cycles
            NFock= 11  Conv=0.40D-08     -V/T= 2.0000
 ExpMin= 1.22D-01 ExpMax= 1.28D+05 ExpMxC= 1.24D+03 IAcc=3 IRadAn=         7 AccDes= 0.00D+00
 HarFok:  IExCor=  205 AccDes= 0.00D+00 IRadAn=         7 IDoV=-2 UseB2=F ITyADJ=14
 ICtDFT= 12500011 ScaDFX=  1.000000  1.000000  1.000000  1.000000
 Range of M.O.s used for correlation:     8    66
 NBasis=    66 NAE=    18 NBE=    18 NFC=     7 NFV=     0
 NROrb=     59 NOA=    11 NOB=    11 NVA=    48 NVB=    48
 Fully direct method using O(ONN) memory.
 JobTyp=1 Pass  1:  I=   8 to  18 NPSUse=  1 ParTrn=F ParDer=F DoDerP=T.
 Spin components of T(2) and E(2):
     alpha-alpha T2 =       0.2031044071D-01 E2=     -0.6186779416D-01
     alpha-beta  T2 =       0.1200496566D+00 E2=     -0.3693838493D+00
     beta-beta   T2 =       0.2031044071D-01 E2=     -0.6186779416D-01
 ANorm=    0.1077344206D+01
 E2 =    -0.4931194376D+00 EUMP2 =    -0.57500208709073D+03
          IDoAtm=1111111
          Differentiating once with respect to electric field.
                with respect to dipole field.
          Differentiating once with respect to nuclear coordinates.
 Keep R1 ints in memory in canonical form, NReq=3354155.
          There are     1 degrees of freedom in the 1st order CPHF.  IDoFFX=0 NUNeed=     1.
 LinEq1:  Iter=  0 NonCon=     1 RMS=4.45D-03 Max=4.08D-02 NDo=     1
 AX will form     1 AO Fock derivatives at one time.
 LinEq1:  Iter=  1 NonCon=     1 RMS=1.29D-03 Max=1.38D-02 NDo=     1
 LinEq1:  Iter=  2 NonCon=     1 RMS=4.26D-04 Max=4.97D-03 NDo=     1
 LinEq1:  Iter=  3 NonCon=     1 RMS=7.20D-05 Max=6.44D-04 NDo=     1
 LinEq1:  Iter=  4 NonCon=     1 RMS=2.52D-05 Max=2.59D-04 NDo=     1
 LinEq1:  Iter=  5 NonCon=     1 RMS=7.90D-06 Max=8.09D-05 NDo=     1
 LinEq1:  Iter=  6 NonCon=     1 RMS=2.20D-06 Max=2.96D-05 NDo=     1
 LinEq1:  Iter=  7 NonCon=     1 RMS=5.70D-07 Max=7.17D-06 NDo=     1
 LinEq1:  Iter=  8 NonCon=     1 RMS=1.62D-07 Max=1.58D-06 NDo=     1
 LinEq1:  Iter=  9 NonCon=     1 RMS=3.15D-08 Max=3.61D-07 NDo=     1
 LinEq1:  Iter= 10 NonCon=     1 RMS=6.67D-09 Max=6.47D-08 NDo=     1
 LinEq1:  Iter= 11 NonCon=     1 RMS=1.32D-09 Max=9.59D-09 NDo=     1
 LinEq1:  Iter= 12 NonCon=     1 RMS=2.31D-10 Max=1.78D-09 NDo=     1
 LinEq1:  Iter= 13 NonCon=     0 RMS=5.55D-11 Max=3.73D-10 NDo=     1
 Linear equations converged to 1.000D-10 1.000D-09 after    13 iterations.
 End of Minotr F.D. properties file   721 does not exist.
 End of Minotr F.D. properties file   722 does not exist.
 End of Minotr F.D. properties file   788 does not exist.
 Calling FoFJK, ICntrl=  10002127 FMM=F ISym2X=0 I1Cent= 0 IOpClX= 0 NMat=1 NMatS=1 NMatT=0.
 ***** Axes restored to original set *****
 -------------------------------------------------------------------
 Center     Atomic                   Forces (Hartrees/Bohr)
 Number     Number              X              Y              Z
 -------------------------------------------------------------------
      1       17           0.000314199   -0.000202799   -0.000206943
      2        6           0.000336400    0.000754537    0.000621337
      3        1          -0.000298614    0.000080221   -0.000066932
      4        1           0.000159710   -0.000732835   -0.000564490
      5        1          -0.000330448   -0.000070997    0.000112244
      6        8          -0.000131372    0.000258284    0.000174468
      7        1          -0.000049876   -0.000086411   -0.000069685
 -------------------------------------------------------------------
 Cartesian Forces:  Max     0.000754537 RMS     0.000344243

 GradGradGradGradGradGradGradGradGradGradGradGradGradGradGradGradGradGrad
 Berny optimization.
 Using GEDIIS/GDIIS optimizer.
 FormGI is forming the generalized inverse of G from B-inverse, IUseBI=4.
 Internal  Forces:  Max     0.001307703 RMS     0.000411815
 Search for a local minimum.
 Step number   4 out of a maximum of   28
 All quantities printed in internal units (Hartrees-Bohrs-Radians)
 Mixed Optimization -- En-DIIS/RFO-DIIS
 Swapping is turned off.
 Update second derivatives using D2CorX and points    2    1    3    4
 DE= -3.02D-05 DEPred=-1.70D-05 R= 1.77D+00
 TightC=F SS=  1.41D+00  RLast= 2.42D-02 DXNew= 4.2426D-01 7.2612D-02
 Trust test= 1.77D+00 RLast= 2.42D-02 DXMaxT set to 2.52D-01
 The second derivative matrix:
                          R1        R2        R3        R4        R5
           R1           0.19310
           R2          -0.00025   0.31854
           R3          -0.00065   0.00053   0.05835
           R4          -0.00025   0.00086   0.00055   0.31892
           R5           0.00022   0.00244   0.00366   0.00346   0.43980
           R6           0.00128  -0.00240  -0.00355  -0.00310  -0.00580
           A1          -0.00007  -0.00105  -0.00081  -0.00146  -0.00441
           A2          -0.00109  -0.00127   0.01186  -0.00137  -0.02770
           A3          -0.00009  -0.00108  -0.00083  -0.00149  -0.00455
           A4           0.00043   0.00088  -0.00474   0.00104   0.01309
           A5           0.00022   0.00046   0.00051   0.00068   0.00195
           A6           0.00045   0.00141  -0.00511   0.00174   0.01653
           A7           0.00222   0.00312   0.00038   0.00461   0.01774
           A8          -0.00362   0.00269   0.00777   0.00334   0.00093
           A9           0.00000  -0.00081   0.00002  -0.00107  -0.00432
           D1           0.00001  -0.00004  -0.00003  -0.00005  -0.00014
           D2           0.00048  -0.00090  -0.00020  -0.00110  -0.00377
           D3          -0.00049   0.00089   0.00017   0.00109   0.00378
                          R6        A1        A2        A3        A4
           R6           0.54921
           A1           0.00320   0.16152
           A2           0.01273   0.00519   0.08310
           A3           0.00327   0.00154   0.00536   0.16157
           A4          -0.00649  -0.00272   0.03112  -0.00281   0.14761
           A5          -0.00106  -0.00021  -0.00397  -0.00020   0.00184
           A6          -0.00872  -0.00391   0.03365  -0.00403  -0.01312
           A7          -0.00802  -0.00798  -0.02310  -0.00828   0.01203
           A8          -0.00963  -0.00341  -0.02005  -0.00348   0.00970
           A9           0.00301   0.00164  -0.00036   0.00169  -0.00034
           D1           0.00013   0.00007   0.00012   0.00007  -0.00007
           D2           0.00375   0.00184  -0.00211   0.00191   0.00036
           D3          -0.00377  -0.00184   0.00236  -0.00191  -0.00046
                          A5        A6        A7        A8        A9
           A5           0.15931
           A6           0.00254   0.14647
           A7           0.00466   0.01636   0.19717
           A8           0.00236   0.01154  -0.00576   0.04751
           A9          -0.00089  -0.00098  -0.00607  -0.00246   0.00780
           D1          -0.00004  -0.00011  -0.00019  -0.00008   0.00005
           D2          -0.00131  -0.00010  -0.00349  -0.00235   0.00087
           D3           0.00132  -0.00003   0.00342   0.00236  -0.00085
                          D1        D2        D3
           D1           0.00230
           D2           0.00004   0.00294
           D3          -0.00004  -0.00062   0.00289
 ITU=  1  1 -1  0
     Eigenvalues ---    0.00230   0.00631   0.00957   0.06007   0.06994
     Eigenvalues ---    0.09287   0.11199   0.16000   0.16065   0.19260
     Eigenvalues ---    0.20153   0.31785   0.31975   0.44350   0.55096
 En-DIIS/RFO-DIIS IScMMF=        0 using points:     4    3
 RFO step:  Lambda=-2.01098627D-05.
 DidBck=F Rises=F RFO-DIIS coefs:    4.45555   -3.45555
 Iteration  1 RMS(Cart)=  0.07648284 RMS(Int)=  0.00310381
 Iteration  2 RMS(Cart)=  0.00299864 RMS(Int)=  0.00081547
 Iteration  3 RMS(Cart)=  0.00000152 RMS(Int)=  0.00081547
 Iteration  4 RMS(Cart)=  0.00000000 RMS(Int)=  0.00081547
 Variable       Old X    -DE/DX   Delta X   Delta X   Delta X     New X
                                 (Linear)    (Quad)   (Total)
    R1        3.59970   0.00000  -0.00068  -0.00048  -0.00116   3.59854
    R2        2.11275   0.00001  -0.00060   0.00043  -0.00017   2.11259
    R3        3.45446   0.00023   0.01924   0.01482   0.03409   3.48855
    R4        2.11275   0.00003  -0.00069   0.00065  -0.00004   2.11271
    R5        1.93583  -0.00026  -0.00663  -0.00174  -0.00841   1.92742
    R6        1.82557   0.00012   0.00256   0.00009   0.00265   1.82822
    A1        1.74849   0.00020   0.00390  -0.00183   0.00279   1.75127
    A2        1.96683  -0.00131  -0.04300  -0.03535  -0.07764   1.88919
    A3        1.74852   0.00019   0.00405  -0.00181   0.00267   1.75119
    A4        2.07572   0.00054   0.01713   0.01536   0.03135   2.10708
    A5        1.79841  -0.00030  -0.00267   0.00174  -0.00273   1.79568
    A6        2.07225   0.00061   0.01802   0.01757   0.03432   2.10658
    A7        1.69134  -0.00001  -0.01762  -0.00013  -0.01775   1.67359
    A8        2.98060   0.00030  -0.04555  -0.01486  -0.05981   2.92079
    A9        3.14339  -0.00007   0.01246  -0.04761  -0.03520   3.10818
    D1       -0.00334   0.00001   0.00734  -0.00347   0.00408   0.00074
    D2        2.00422  -0.00038  -0.02177  -0.02010  -0.04341   1.96081
    D3       -2.00940   0.00037   0.03162   0.02698   0.05995  -1.94945
         Item               Value     Threshold  Converged?
 Maximum Force            0.001308     0.000015     NO 
 RMS     Force            0.000412     0.000010     NO 
 Maximum Displacement     0.218328     0.000060     NO 
 RMS     Displacement     0.077068     0.000040     NO 
 Predicted change in Energy=-9.122590D-05
 GradGradGradGradGradGradGradGradGradGradGradGradGradGradGradGradGradGrad

                          Input orientation:                          
 ---------------------------------------------------------------------
 Center     Atomic      Atomic             Coordinates (Angstroms)
 Number     Number       Type             X           Y           Z
 ---------------------------------------------------------------------
      1         17           0       -0.897441   -0.705032   -0.459440
      2          6           0        0.287173    0.413770    0.526051
      3          1           0       -0.081493    0.230204    1.565359
      4          1           0        2.018192   -0.015803    0.049624
      5          1           0       -0.138599    1.418875    0.284379
      6          8           0        2.873031   -0.383298   -0.368091
      7          1           0        2.434056   -1.023079   -0.945972
 ---------------------------------------------------------------------
                    Distance matrix (angstroms):
                    1          2          3          4          5
     1  Cl   0.000000
     2  C    1.904264   0.000000
     3  H    2.374921   1.117932   0.000000
     4  H    3.038931   1.846062   2.601279   0.000000
     5  H    2.374887   1.117999   1.748459   2.600992   0.000000
     6  O    3.785277   2.849820   3.583829   1.019945   3.569798
     7  H    3.381826   2.973297   3.769017   1.476062   3.754392
                    6          7
     6  O    0.000000
     7  H    0.967453   0.000000
 Stoichiometry    CH4ClO(1-)
 Framework group  C1[X(CH4ClO)]
 Deg. of freedom    15
 Full point group                 C1      NOp   1
 Largest Abelian subgroup         C1      NOp   1
 Largest concise Abelian subgroup C1      NOp   1
                         Standard orientation:                         
 ---------------------------------------------------------------------
 Center     Atomic      Atomic             Coordinates (Angstroms)
 Number     Number       Type             X           Y           Z
 ---------------------------------------------------------------------
      1         17           0        1.308610   -0.390070   -0.000103
      2          6           0        0.056258    1.044446   -0.000333
      3          1           0        0.433585    1.640098   -0.867855
      4          1           0       -1.644511    0.326783   -0.017342
      5          1           0        0.420401    1.628761    0.880517
      6          8           0       -2.474619   -0.265567    0.000834
      7          1           0       -1.996439   -1.106584    0.001751
 ---------------------------------------------------------------------
 Rotational constants (GHZ):     18.3085579      3.0379022      2.6476295
 Standard basis: CC-pVDZ (5D, 7F)
 There are    69 symmetry adapted cartesian basis functions of A   symmetry.
 There are    66 symmetry adapted basis functions of A   symmetry.
    66 basis functions,   165 primitive gaussians,    69 cartesian basis functions
    18 alpha electrons       18 beta electrons
       nuclear repulsion energy        90.1776207130 Hartrees.
 NAtoms=    7 NActive=    7 NUniq=    7 SFac= 1.00D+00 NAtFMM=   60 NAOKFM=F Big=F
 Integral buffers will be    131072 words long.
 Raffenetti 1 integral format.
 Two-electron integral symmetry is turned on.
 One-electron integrals computed using PRISM.
 NBasis=    66 RedAO= T EigKep=  1.96D-02  NBF=    66
 NBsUse=    66 1.00D-06 EigRej= -1.00D+00 NBFU=    66
 Initial guess from the checkpoint file:  "/localscratch/rjackson.18103347.0/Gau-37576.chk"
 B after Tr=     0.000000    0.000000   -0.000000
         Rot=    0.999984   -0.000545    0.000108    0.005676 Ang=  -0.65 deg.
 ExpMin= 1.22D-01 ExpMax= 1.28D+05 ExpMxC= 1.24D+03 IAcc=3 IRadAn=         5 AccDes= 0.00D+00
 Harris functional with IExCor=  205 and IRadAn=       5 diagonalized for initial guess.
 HarFok:  IExCor=  205 AccDes= 0.00D+00 IRadAn=         5 IDoV= 1 UseB2=F ITyADJ=14
 ICtDFT=  3500011 ScaDFX=  1.000000  1.000000  1.000000  1.000000
 FoFCou: FMM=F IPFlag=           0 FMFlag=      100000 FMFlg1=           0
         NFxFlg=           0 DoJE=T BraDBF=F KetDBF=T FulRan=T
         wScrn=  0.000000 ICntrl=     500 IOpCl=  0 I1Cent=   200000004 NGrid=           0
         NMat0=    1 NMatS0=      1 NMatT0=    0 NMatD0=    1 NMtDS0=    0 NMtDT0=    0
 Petite list used in FoFCou.
 Keep R1 ints in memory in canonical form, NReq=3411967.
 Requested convergence on RMS density matrix=1.00D-08 within 256 cycles.
 Requested convergence on MAX density matrix=1.00D-06.
 Requested convergence on             energy=1.00D-06.
 No special actions if energy rises.
 SCF Done:  E(RHF) =  -574.509132579     A.U. after   12 cycles
            NFock= 12  Conv=0.50D-08     -V/T= 2.0000
 ExpMin= 1.22D-01 ExpMax= 1.28D+05 ExpMxC= 1.24D+03 IAcc=3 IRadAn=         7 AccDes= 0.00D+00
 HarFok:  IExCor=  205 AccDes= 0.00D+00 IRadAn=         7 IDoV=-2 UseB2=F ITyADJ=14
 ICtDFT= 12500011 ScaDFX=  1.000000  1.000000  1.000000  1.000000
 Range of M.O.s used for correlation:     8    66
 NBasis=    66 NAE=    18 NBE=    18 NFC=     7 NFV=     0
 NROrb=     59 NOA=    11 NOB=    11 NVA=    48 NVB=    48
 Fully direct method using O(ONN) memory.
 JobTyp=1 Pass  1:  I=   8 to  18 NPSUse=  1 ParTrn=F ParDer=F DoDerP=T.
 Spin components of T(2) and E(2):
     alpha-alpha T2 =       0.2030463904D-01 E2=     -0.6185619985D-01
     alpha-beta  T2 =       0.1200170799D+00 E2=     -0.3693330745D+00
     beta-beta   T2 =       0.2030463904D-01 E2=     -0.6185619985D-01
 ANorm=    0.1077323702D+01
 E2 =    -0.4930454743D+00 EUMP2 =    -0.57500217805333D+03
          IDoAtm=1111111
          Differentiating once with respect to electric field.
                with respect to dipole field.
          Differentiating once with respect to nuclear coordinates.
 Keep R1 ints in memory in canonical form, NReq=3354320.
          There are     1 degrees of freedom in the 1st order CPHF.  IDoFFX=0 NUNeed=     1.
 LinEq1:  Iter=  0 NonCon=     1 RMS=4.44D-03 Max=3.93D-02 NDo=     1
 AX will form     1 AO Fock derivatives at one time.
 LinEq1:  Iter=  1 NonCon=     1 RMS=1.29D-03 Max=1.40D-02 NDo=     1
 LinEq1:  Iter=  2 NonCon=     1 RMS=4.29D-04 Max=4.97D-03 NDo=     1
 LinEq1:  Iter=  3 NonCon=     1 RMS=7.24D-05 Max=6.52D-04 NDo=     1
 LinEq1:  Iter=  4 NonCon=     1 RMS=2.54D-05 Max=2.66D-04 NDo=     1
 LinEq1:  Iter=  5 NonCon=     1 RMS=8.11D-06 Max=8.58D-05 NDo=     1
 LinEq1:  Iter=  6 NonCon=     1 RMS=2.42D-06 Max=2.99D-05 NDo=     1
 LinEq1:  Iter=  7 NonCon=     1 RMS=6.04D-07 Max=7.53D-06 NDo=     1
 LinEq1:  Iter=  8 NonCon=     1 RMS=1.68D-07 Max=1.64D-06 NDo=     1
 LinEq1:  Iter=  9 NonCon=     1 RMS=3.13D-08 Max=3.33D-07 NDo=     1
 LinEq1:  Iter= 10 NonCon=     1 RMS=6.64D-09 Max=6.50D-08 NDo=     1
 LinEq1:  Iter= 11 NonCon=     1 RMS=1.34D-09 Max=1.08D-08 NDo=     1
 LinEq1:  Iter= 12 NonCon=     1 RMS=2.34D-10 Max=1.79D-09 NDo=     1
 LinEq1:  Iter= 13 NonCon=     0 RMS=5.73D-11 Max=3.94D-10 NDo=     1
 Linear equations converged to 1.000D-10 1.000D-09 after    13 iterations.
 End of Minotr F.D. properties file   721 does not exist.
 End of Minotr F.D. properties file   722 does not exist.
 End of Minotr F.D. properties file   788 does not exist.
 Calling FoFJK, ICntrl=  10002127 FMM=F ISym2X=0 I1Cent= 0 IOpClX= 0 NMat=1 NMatS=1 NMatT=0.
 ***** Axes restored to original set *****
 -------------------------------------------------------------------
 Center     Atomic                   Forces (Hartrees/Bohr)
 Number     Number              X              Y              Z
 -------------------------------------------------------------------
      1       17          -0.000193664   -0.000289496   -0.000263451
      2        6           0.001364575    0.000667383    0.001179216
      3        1          -0.000554159   -0.000242189    0.000033527
      4        1          -0.000654791    0.001148542   -0.000343962
      5        1          -0.000286962   -0.000094851   -0.000282837
      6        8          -0.000979681   -0.001571374   -0.000411686
      7        1           0.001304683    0.000381985    0.000089192
 -------------------------------------------------------------------
 Cartesian Forces:  Max     0.001571374 RMS     0.000747940

 GradGradGradGradGradGradGradGradGradGradGradGradGradGradGradGradGradGrad
 Berny optimization.
 Using GEDIIS/GDIIS optimizer.
 FormGI is forming the generalized inverse of G from B-inverse, IUseBI=4.
 Internal  Forces:  Max     0.001870253 RMS     0.000667154
 Search for a local minimum.
 Step number   5 out of a maximum of   28
 All quantities printed in internal units (Hartrees-Bohrs-Radians)
 Mixed Optimization -- En-DIIS/RFO-DIIS
 Swapping is turned off.
 Update second derivatives using D2CorX and points    2    1    3    4    5
 DE= -9.10D-05 DEPred=-9.12D-05 R= 9.97D-01
 TightC=F SS=  1.41D+00  RLast= 1.42D-01 DXNew= 4.2426D-01 4.2509D-01
 Trust test= 9.97D-01 RLast= 1.42D-01 DXMaxT set to 4.24D-01
 The second derivative matrix:
                          R1        R2        R3        R4        R5
           R1           0.19529
           R2           0.00062   0.31886
           R3          -0.00232  -0.00030   0.05928
           R4           0.00010   0.00090   0.00006   0.31884
           R5           0.00570   0.00444  -0.00082   0.00395   0.45179
           R6          -0.00186  -0.00370  -0.00075  -0.00336  -0.01312
           A1          -0.00203  -0.00165   0.00107  -0.00153  -0.00880
           A2          -0.00102   0.00009   0.01419  -0.00014  -0.02645
           A3          -0.00208  -0.00167   0.00113  -0.00157  -0.00910
           A4           0.00190   0.00091  -0.00690   0.00068   0.01600
           A5           0.00134   0.00074  -0.00057   0.00067   0.00426
           A6           0.00009   0.00054  -0.00604   0.00098   0.01445
           A7           0.01363   0.00712  -0.00923   0.00574   0.04396
           A8          -0.00308   0.00194   0.00686   0.00134  -0.00565
           A9           0.00307   0.00068  -0.00212  -0.00042   0.00406
           D1          -0.00005  -0.00006   0.00002  -0.00005  -0.00028
           D2           0.00027  -0.00104  -0.00009  -0.00106  -0.00370
           D3          -0.00028   0.00104   0.00006   0.00105   0.00371
                          R6        A1        A2        A3        A4
           R6           0.55445
           A1           0.00551   0.16271
           A2           0.00862   0.00265   0.06934
           A3           0.00559   0.00274   0.00257   0.16276
           A4          -0.00704  -0.00286   0.03758  -0.00286   0.14564
           A5          -0.00214  -0.00073  -0.00256  -0.00070   0.00186
           A6          -0.00585  -0.00228   0.03983  -0.00231  -0.01644
           A7          -0.02252  -0.01719  -0.01960  -0.01775   0.01769
           A8          -0.00792  -0.00146  -0.01473  -0.00160   0.00724
           A9          -0.00267  -0.00126   0.00055  -0.00121   0.00175
           D1           0.00022   0.00011   0.00005   0.00012  -0.00008
           D2           0.00433   0.00212  -0.00171   0.00225   0.00005
           D3          -0.00434  -0.00212   0.00201  -0.00224  -0.00017
                          A5        A6        A7        A8        A9
           A5           0.15942
           A6           0.00157   0.14357
           A7           0.00972   0.01235   0.25372
           A8           0.00125   0.00559  -0.01653   0.03887
           A9           0.00074  -0.00187   0.01012   0.00308   0.01278
           D1          -0.00006  -0.00006  -0.00048  -0.00003  -0.00005
           D2          -0.00149   0.00008  -0.00369   0.00020   0.00003
           D3           0.00149  -0.00022   0.00361  -0.00013  -0.00002
                          D1        D2        D3
           D1           0.00230
           D2           0.00005   0.00260
           D3          -0.00005  -0.00029   0.00258
 ITU=  1  1  1 -1  0
     Eigenvalues ---    0.00229   0.00366   0.01337   0.05105   0.06142
     Eigenvalues ---    0.09764   0.11221   0.16042   0.16097   0.19234
     Eigenvalues ---    0.25022   0.31795   0.32012   0.46046   0.56013
[...]
 Requested convergence on             energy=1.00D-06.
 No special actions if energy rises.
 SCF Done:  E(RHF) =  -574.509545548     A.U. after    7 cycles
            NFock=  7  Conv=0.39D-08     -V/T= 2.0000
 ExpMin= 1.22D-01 ExpMax= 1.28D+05 ExpMxC= 1.24D+03 IAcc=3 IRadAn=         7 AccDes= 0.00D+00
 HarFok:  IExCor=  205 AccDes= 0.00D+00 IRadAn=         7 IDoV=-2 UseB2=F ITyADJ=14
 ICtDFT= 12500011 ScaDFX=  1.000000  1.000000  1.000000  1.000000
 Range of M.O.s used for correlation:     8    66
 NBasis=    66 NAE=    18 NBE=    18 NFC=     7 NFV=     0
 NROrb=     59 NOA=    11 NOB=    11 NVA=    48 NVB=    48
 Fully direct method using O(ONN) memory.
 JobTyp=1 Pass  1:  I=   8 to  18 NPSUse=  1 ParTrn=F ParDer=F DoDerP=T.
 Spin components of T(2) and E(2):
     alpha-alpha T2 =       0.2027966567D-01 E2=     -0.6180019139D-01
     alpha-beta  T2 =       0.1199435416D+00 E2=     -0.3691430941D+00
     beta-beta   T2 =       0.2027966567D-01 E2=     -0.6180019139D-01
 ANorm=    0.1077266389D+01
 E2 =    -0.4927434769D+00 EUMP2 =    -0.57500228902448D+03
          IDoAtm=1111111
          Differentiating once with respect to electric field.
                with respect to dipole field.
          Differentiating once with respect to nuclear coordinates.
 Keep R1 ints in memory in canonical form, NReq=3354523.
          There are     1 degrees of freedom in the 1st order CPHF.  IDoFFX=0 NUNeed=     1.
 LinEq1:  Iter=  0 NonCon=     1 RMS=4.47D-03 Max=3.78D-02 NDo=     1
 AX will form     1 AO Fock derivatives at one time.
 LinEq1:  Iter=  1 NonCon=     1 RMS=1.30D-03 Max=1.42D-02 NDo=     1
 LinEq1:  Iter=  2 NonCon=     1 RMS=4.35D-04 Max=4.92D-03 NDo=     1
 LinEq1:  Iter=  3 NonCon=     1 RMS=7.30D-05 Max=6.60D-04 NDo=     1
 LinEq1:  Iter=  4 NonCon=     1 RMS=2.57D-05 Max=2.66D-04 NDo=     1
 LinEq1:  Iter=  5 NonCon=     1 RMS=8.26D-06 Max=8.50D-05 NDo=     1
 LinEq1:  Iter=  6 NonCon=     1 RMS=2.60D-06 Max=2.91D-05 NDo=     1
 LinEq1:  Iter=  7 NonCon=     1 RMS=6.25D-07 Max=7.55D-06 NDo=     1
 LinEq1:  Iter=  8 NonCon=     1 RMS=1.72D-07 Max=1.72D-06 NDo=     1
 LinEq1:  Iter=  9 NonCon=     1 RMS=3.10D-08 Max=2.94D-07 NDo=     1
 LinEq1:  Iter= 10 NonCon=     1 RMS=6.45D-09 Max=6.12D-08 NDo=     1
 LinEq1:  Iter= 11 NonCon=     1 RMS=1.32D-09 Max=1.10D-08 NDo=     1
 LinEq1:  Iter= 12 NonCon=     1 RMS=2.32D-10 Max=1.80D-09 NDo=     1
 LinEq1:  Iter= 13 NonCon=     0 RMS=5.76D-11 Max=4.11D-10 NDo=     1
 Linear equations converged to 1.000D-10 1.000D-09 after    13 iterations.
 End of Minotr F.D. properties file   721 does not exist.
 End of Minotr F.D. properties file   722 does not exist.
 End of Minotr F.D. properties file   788 does not exist.
 Calling FoFJK, ICntrl=  10002127 FMM=F ISym2X=0 I1Cent= 0 IOpClX= 0 NMat=1 NMatS=1 NMatT=0.
 ***** Axes restored to original set *****
 -------------------------------------------------------------------
 Center     Atomic                   Forces (Hartrees/Bohr)
 Number     Number              X              Y              Z
 -------------------------------------------------------------------
      1       17           0.000000065    0.000000075    0.000000036
      2        6          -0.000000017   -0.000001335    0.000001333
      3        1          -0.000000728    0.000000443   -0.000000287
      4        1           0.000000379    0.000000458   -0.000000760
      5        1           0.000000658    0.000000219   -0.000000374
      6        8          -0.000000416    0.000000234    0.000000133
      7        1           0.000000058   -0.000000095   -0.000000082
 -------------------------------------------------------------------
 Cartesian Forces:  Max     0.000001335 RMS     0.000000543

 GradGradGradGradGradGradGradGradGradGradGradGradGradGradGradGradGradGrad
 Berny optimization.
 Using GEDIIS/GDIIS optimizer.
 FormGI is forming the generalized inverse of G from B-inverse, IUseBI=4.
 Internal  Forces:  Max     0.000001788 RMS     0.000000600
 Search for a local minimum.
 Step number  13 out of a maximum of   28
 All quantities printed in internal units (Hartrees-Bohrs-Radians)
 Mixed Optimization -- En-DIIS/RFO-DIIS
 Swapping is turned off.
 Update second derivatives using D2CorX and points    2    1    3    4    5
                                                      6    7    8    9   10
                                                     11   12   13
 DE= -6.98D-10 DEPred=-2.06D-09 R= 3.40D-01
 Trust test= 3.40D-01 RLast= 3.53D-04 DXMaxT set to 4.24D-01
 The second derivative matrix:
                          R1        R2        R3        R4        R5
           R1           0.14872
           R2          -0.01386   0.31991
           R3          -0.00270   0.00042   0.02661
           R4          -0.01302   0.00158   0.00046   0.31969
           R5           0.00777   0.00396   0.04827   0.00388   0.38236
           R6           0.00728  -0.00344  -0.00209  -0.00392  -0.01111
           A1           0.03041   0.00092  -0.00050   0.00089  -0.00483
           A2          -0.01319   0.00345  -0.00081   0.00301   0.00047
           A3           0.02956   0.00107  -0.00029   0.00097  -0.00549
           A4          -0.00883  -0.00140   0.00253  -0.00260   0.00321
           A5           0.01341   0.00436   0.00135   0.00417   0.00035
           A6          -0.02421  -0.00536  -0.00134  -0.00424   0.01010
           A7          -0.00219   0.00164  -0.00101   0.00206   0.01774
           A8          -0.00717   0.00294   0.00814   0.00276  -0.00763
           A9          -0.00146   0.00203   0.00022  -0.00197   0.00053
           D1          -0.00084   0.00063  -0.00046   0.00057  -0.00087
           D2           0.00857  -0.00551   0.00014  -0.00510  -0.00394
           D3          -0.00588   0.00518   0.00007   0.00481   0.00489
                          R6        A1        A2        A3        A4
           R6           0.53427
           A1          -0.00547   0.14130
           A2          -0.00939  -0.00628   0.05532
           A3          -0.00624  -0.01567  -0.00603   0.14545
           A4           0.00211   0.00951   0.04207   0.00811   0.14328
           A5           0.01411   0.00376   0.01228   0.00175  -0.00331
           A6          -0.00400   0.01592   0.03691   0.01399  -0.02542
           A7           0.02433   0.00697   0.01543   0.00674  -0.00146
           A8          -0.00789  -0.00401  -0.01169  -0.00338   0.00631
           A9           0.00253   0.00057   0.00141   0.00042   0.00723
           D1          -0.00014  -0.00209   0.00094  -0.00146   0.00030
           D2           0.00846   0.01152  -0.00494   0.00988  -0.00092
           D3          -0.00804  -0.01042   0.00463  -0.00927   0.00090
                          A5        A6        A7        A8        A9
           A5           0.13548
           A6           0.00505   0.13005
           A7          -0.01192   0.00713   0.15527
           A8           0.00408   0.00602  -0.01841   0.04039
           A9          -0.00004  -0.00504  -0.00196   0.00053   0.02789
           D1           0.00157   0.00029  -0.00104   0.00011   0.00013
           D2          -0.00937  -0.00041  -0.00529  -0.00208  -0.00084
           D3           0.00724   0.00100   0.00625   0.00204   0.00075
                          D1        D2        D3
           D1           0.00236
           D2          -0.00045   0.00692
           D3           0.00034  -0.00413   0.00604
 ITU=  0  0  0  0  1  1  1  1  1  1  1 -1  0
     Eigenvalues ---    0.00225   0.00483   0.01850   0.02699   0.04472
     Eigenvalues ---    0.07835   0.10186   0.11901   0.15765   0.16669
     Eigenvalues ---    0.18857   0.31825   0.32376   0.39055   0.53721
 En-DIIS/RFO-DIIS IScMMF=        0 using points:    13   12   11   10    9
 RFO step:  Lambda=-1.65043739D-11.
 DidBck=F Rises=F RFO-DIIS coefs:    1.02523   -0.02876    0.00336    0.00005    0.00012
 Iteration  1 RMS(Cart)=  0.00000881 RMS(Int)=  0.00000000
 Iteration  2 RMS(Cart)=  0.00000000 RMS(Int)=  0.00000000
 Variable       Old X    -DE/DX   Delta X   Delta X   Delta X     New X
                                 (Linear)    (Quad)   (Total)
    R1        3.61139  -0.00000  -0.00000  -0.00000  -0.00000   3.61139
    R2        2.11342  -0.00000  -0.00000  -0.00000  -0.00000   2.11342
    R3        3.48493   0.00000   0.00000   0.00000   0.00000   3.48493
    R4        2.11342  -0.00000  -0.00000   0.00000  -0.00000   2.11342
    R5        1.92613  -0.00000  -0.00000  -0.00000  -0.00000   1.92613
    R6        1.82571   0.00000  -0.00000   0.00000  -0.00000   1.82571
    A1        1.74433  -0.00000   0.00000   0.00000   0.00000   1.74433
    A2        1.79566  -0.00000  -0.00000  -0.00000  -0.00000   1.79566
    A3        1.74434   0.00000   0.00000  -0.00000   0.00000   1.74434
    A4        2.14729   0.00000  -0.00000   0.00001   0.00001   2.14730
    A5        1.79583  -0.00000   0.00000  -0.00000   0.00000   1.79583
    A6        2.14773  -0.00000  -0.00000  -0.00001  -0.00001   2.14772
    A7        1.68700   0.00000   0.00000  -0.00000   0.00000   1.68700
    A8        2.89392   0.00000  -0.00000   0.00000  -0.00000   2.89392
    A9        3.14171  -0.00000   0.00000  -0.00001  -0.00001   3.14170
    D1       -0.00004  -0.00000   0.00000  -0.00000   0.00000  -0.00004
    D2        1.88327   0.00000   0.00000   0.00000   0.00001   1.88327
    D3       -1.88356   0.00000   0.00000   0.00001   0.00001  -1.88355
         Item               Value     Threshold  Converged?
 Maximum Force            0.000002     0.000015     YES
 RMS     Force            0.000001     0.000010     YES
 Maximum Displacement     0.000019     0.000060     YES
 RMS     Displacement     0.000009     0.000040     YES
 Predicted change in Energy=-2.225995D-11
 Optimization completed.
    -- Stationary point found.
                           ----------------------------
                           !   Optimized Parameters   !
                           ! (Angstroms and Degrees)  !
 --------------------------                            --------------------------
 ! Name  Definition              Value          Derivative Info.                !
 --------------------------------------------------------------------------------
 ! R1    R(1,2)                  1.9111         -DE/DX =    0.0                 !
 ! R2    R(2,3)                  1.1184         -DE/DX =    0.0                 !
 ! R3    R(2,4)                  1.8441         -DE/DX =    0.0                 !
 ! R4    R(2,5)                  1.1184         -DE/DX =    0.0                 !
 ! R5    R(4,6)                  1.0193         -DE/DX =    0.0                 !
 ! R6    R(6,7)                  0.9661         -DE/DX =    0.0                 !
 ! A1    A(1,2,3)               99.9429         -DE/DX =    0.0                 !
 ! A2    A(1,2,4)              102.8837         -DE/DX =    0.0                 !
 ! A3    A(1,2,5)               99.9432         -DE/DX =    0.0                 !
 ! A4    A(3,2,4)              123.0305         -DE/DX =    0.0                 !
 ! A5    A(3,2,5)              102.8932         -DE/DX =    0.0                 !
 ! A6    A(4,2,5)              123.0558         -DE/DX =    0.0                 !
 ! A7    A(4,6,7)               96.6577         -DE/DX =    0.0                 !
 ! A8    L(2,4,6,7,-1)         165.8094         -DE/DX =    0.0                 !
 ! A9    L(2,4,6,7,-2)         180.0067         -DE/DX =    0.0                 !
 ! D1    D(1,2,6,7)             -0.0025         -DE/DX =    0.0                 !
 ! D2    D(3,2,6,7)            107.9033         -DE/DX =    0.0                 !
 ! D3    D(5,2,6,7)           -107.9199         -DE/DX =    0.0                 !
 --------------------------------------------------------------------------------
 GradGradGradGradGradGradGradGradGradGradGradGradGradGradGradGradGradGrad

                          Input orientation:                          
 ---------------------------------------------------------------------
 Center     Atomic      Atomic             Coordinates (Angstroms)
 Number     Number       Type             X           Y           Z
 ---------------------------------------------------------------------
      1         17           0       -0.774988   -0.727695   -0.490827
      2          6           0        0.304958    0.450836    0.556531
      3          1           0       -0.104290    0.234268    1.574557
      4          1           0        2.018892    0.001145    0.045569
      5          1           0       -0.171437    1.429357    0.299037
      6          8           0        2.845555   -0.411900   -0.384458
      7          1           0        2.376230   -1.040375   -0.948501
 ---------------------------------------------------------------------
                    Distance matrix (angstroms):
                    1          2          3          4          5
     1  Cl   0.000000
     2  C    1.911067   0.000000
     3  H    2.375083   1.118375   0.000000
     4  H    2.936782   1.844146   2.626795   0.000000
     5  H    2.375086   1.118373   1.749199   2.627085   0.000000
     6  O    3.635845   2.843309   3.599563   1.019265   3.599949
     7  H    3.199595   2.962937   3.760786   1.483452   3.761188
                    6          7
     6  O    0.000000
     7  H    0.966122   0.000000
 Stoichiometry    CH4ClO(1-)
 Framework group  C1[X(CH4ClO)]
 Deg. of freedom    15
 Full point group                 C1      NOp   1
 Largest Abelian subgroup         C1      NOp   1
 Largest concise Abelian subgroup C1      NOp   1
                         Standard orientation:                         
 ---------------------------------------------------------------------
 Center     Atomic      Atomic             Coordinates (Angstroms)
 Number     Number       Type             X           Y           Z
 ---------------------------------------------------------------------
      1         17           0        1.237635   -0.421500    0.000000
      2          6           0        0.094907    1.110280    0.000031
      3          1           0        0.516053    1.665400   -0.874750
      4          1           0       -1.591896    0.364915    0.000089
      5          1           0        0.516449    1.665666    0.874449
      6          8           0       -2.394756   -0.263032    0.000009
      7          1           0       -1.891791   -1.087907   -0.000049
 ---------------------------------------------------------------------
 Rotational constants (GHZ):     16.6583956      3.2914707      2.7952972

 **********************************************************************

            Population analysis using the SCF density.

 **********************************************************************

 Orbital symmetries:
       Occupied  (A) (A) (A) (A) (A) (A) (A) (A) (A) (A) (A) (A)
                 (A) (A) (A) (A) (A) (A)
       Virtual   (A) (A) (A) (A) (A) (A) (A) (A) (A) (A) (A) (A)
                 (A) (A) (A) (A) (A) (A) (A) (A) (A) (A) (A) (A)
                 (A) (A) (A) (A) (A) (A) (A) (A) (A) (A) (A) (A)
                 (A) (A) (A) (A) (A) (A) (A) (A) (A) (A) (A) (A)
 The electronic state is 1-A.
 Alpha  occ. eigenvalues -- -104.58800 -20.31845 -11.02584 -10.31323  -7.78049
 Alpha  occ. eigenvalues --   -7.77824  -7.77815  -1.09794  -0.86313  -0.63245
 Alpha  occ. eigenvalues --   -0.44500  -0.36565  -0.33779  -0.28419  -0.26747
 Alpha  occ. eigenvalues --   -0.24328  -0.20923  -0.10808
 Alpha virt. eigenvalues --    0.36834   0.40638   0.43232   0.44711   0.58617
 Alpha virt. eigenvalues --    0.80542   0.85950   0.92522   0.95047   0.98954
 Alpha virt. eigenvalues --    0.99045   1.01092   1.05788   1.08177   1.09251
 Alpha virt. eigenvalues --    1.16750   1.17882   1.21009   1.22984   1.23477
 Alpha virt. eigenvalues --    1.37403   1.43149   1.47212   1.52240   1.58809
 Alpha virt. eigenvalues --    1.59801   1.63903   1.70902   1.73979   1.85405
 Alpha virt. eigenvalues --    1.85631   2.03995   2.17380   2.18116   2.22083
 Alpha virt. eigenvalues --    2.26786   2.30599   2.34419   2.54712   2.66963
 Alpha virt. eigenvalues --    2.88763   2.92476   2.97710   3.50160   3.53323
 Alpha virt. eigenvalues --    3.71275   4.04930   4.40289
          Condensed to atoms (all electrons):
               1          2          3          4          5          6
     1  Cl  17.444596   0.117211  -0.049230  -0.007779  -0.049229   0.001990
     2  C    0.117211   5.525482   0.372975   0.066956   0.372973  -0.059052
     3  H   -0.049230   0.372975   0.747236  -0.002791  -0.048527   0.000877
     4  H   -0.007779   0.066956  -0.002791   0.382317  -0.002790   0.368079
     5  H   -0.049229   0.372973  -0.048527  -0.002790   0.747241   0.000877
     6  O    0.001990  -0.059052   0.000877   0.368079   0.000877   7.793158
     7  H    0.002549   0.009862   0.000105  -0.058287   0.000105   0.355239
               7
     1  Cl   0.002549
     2  C    0.009862
     3  H    0.000105
     4  H   -0.058287
     5  H    0.000105
     6  O    0.355239
     7  H    0.575743
 Mulliken charges:
               1
     1  Cl  -0.460109
     2  C   -0.406408
     3  H   -0.020644
     4  H    0.254294
     5  H   -0.020649
     6  O   -0.461168
     7  H    0.114684
 Sum of Mulliken charges =  -1.00000
 Mulliken charges with hydrogens summed into heavy atoms:
               1
     1  Cl  -0.460109
     2  C   -0.447702
     6  O   -0.092190
 Electronic spatial extent (au):  <R**2>=            428.9665
 Charge=             -1.0000 electrons
 Dipole moment (field-independent basis, Debye):
    X=              1.9047    Y=             -0.8453    Z=             -0.0004  Tot=              2.0839
 Quadrupole moment (field-independent basis, Debye-Ang):
   XX=            -47.0771   YY=            -29.5742   ZZ=            -29.6904
   XY=              1.6826   XZ=              0.0004   YZ=             -0.0001
 Traceless Quadrupole moment (field-independent basis, Debye-Ang):
   XX=            -11.6299   YY=              5.8730   ZZ=              5.7569
   XY=              1.6826   XZ=              0.0004   YZ=             -0.0001
 Octapole moment (field-independent basis, Debye-Ang**2):
  XXX=             26.6331  YYY=            -11.8030  ZZZ=             -0.0005  XYY=             -5.3284
  XXY=             -0.2309  XXZ=             -0.0001  XZZ=             -1.2954  YZZ=             -2.1777
  YYZ=             -0.0005  XYZ=              0.0001
 Hexadecapole moment (field-independent basis, Debye-Ang**3):
 XXXX=           -499.1721 YYYY=           -127.7716 ZZZZ=            -38.7744 XXXY=             -4.9811
 XXXZ=              0.0009 YYYX=              4.6808 YYYZ=             -0.0001 ZZZX=              0.0002
 ZZZY=             -0.0006 XXYY=            -79.2696 XXZZ=            -73.6136 YYZZ=            -28.2352
 XXYZ=              0.0010 YYXZ=              0.0010 ZZXY=              1.2240
 N-N= 9.112373259415D+01 E-N=-1.556904701758D+03  KE= 5.745113896651D+02
 1\1\GINC-CDR674\FOpt\RMP2-FC\CC-pVDZ\C1H4Cl1O1(1-)\RJACKSON\12-Mar-201
 9\0\\# mp2/cc-PVDZ opt(tight) integral(grid=superfine) scf(maxcyc=256)
 \\OH-chloromethane_product\\-1,1\Cl,-0.7749876185,-0.7276946425,-0.490
 8269536\C,0.3049580619,0.4508363399,0.5565310537\H,-0.1042900631,0.234
 2684692,1.5745568404\H,2.0188916555,0.0011449551,0.0455690207\H,-0.171
 4368644,1.4293574536,0.2990373986\O,2.8455550115,-0.4118995345,-0.3844
 57714\H,2.3762298171,-1.0403750408,-0.9485006458\\Version=EM64L-G09Rev
 E.01\State=1-A\HF=-574.5095455\MP2=-575.002289\RMSD=3.923e-09\RMSF=5.4
 32e-07\Dipole=-0.8262529,-0.3964457,-0.3279258\PG=C01 [X(C1H4Cl1O1)]\\
 @


 A MAN IS NEVER SO BRILLIANT AS WHEN HE TAKES THE WORDS RIGHT OUT
 OF YOUR MOUTH. -- ARNOT SHEPPARD, JR.
 Job cpu time:       0 days  0 hours  1 minutes 29.7 seconds.
 File lengths (MBytes):  RWF=      5 Int=      0 D2E=      0 Chk=      2 Scr=      1
 Normal termination of Gaussian 09 at Tue Mar 12 02:27:15 2019.
