 Entering Gaussian System, Link 0=g09
 Initial command:
 /opt/software/gaussian/g09.e01/l1.exe "/localscratch/rjackson.12297310.0/Gau-1344.inp" -scrdir="/localscratch/rjackson.12297310.0/"
 Entering Link 1 = /opt/software/gaussian/g09.e01/l1.exe PID=      1345.
  
 Copyright (c) 1988,1990,1992,1993,1995,1998,2003,2009,2015,
            Gaussian, Inc.  All Rights Reserved.
  
 This is part of the Gaussian(R) 09 program.  It is based on
 the Gaussian(R) 03 system (copyright 2003, Gaussian, Inc.),
 the Gaussian(R) 98 system (copyright 1998, Gaussian, Inc.),
 the Gaussian(R) 94 system (copyright 1995, Gaussian, Inc.),
 the Gaussian 92(TM) system (copyright 1992, Gaussian, Inc.),
 the Gaussian 90(TM) system (copyright 1990, Gaussian, Inc.),
 the Gaussian 88(TM) system (copyright 1988, Gaussian, Inc.),
 the Gaussian 86(TM) system (copyright 1986, Carnegie Mellon
 University), and the Gaussian 82(TM) system (copyright 1983,
 Carnegie Mellon University). Gaussian is a federally registered
 trademark of Gaussian, Inc.
  
 This software contains proprietary and confidential information,
 including trade secrets, belonging to Gaussian, Inc.
  
 This software is provided under written license and may be
 used, copied, transmitted, or stored only in accord with that
 written license.
  
 The following legend is applicable only to US Government
 contracts under FAR:
  
                    RESTRICTED RIGHTS LEGEND
  
 Use, reproduction and disclosure by the US Government is
 subject to restrictions as set forth in subparagraphs (a)
 and (c) of the Commercial Computer Software - Restricted
 Rights clause in FAR 52.227-19.
  
 Gaussian, Inc.
 340 Quinnipiac St., Bldg. 40, Wallingford CT 06492
  
  
 ---------------------------------------------------------------
 Warning -- This program may not be used in any manner that
 competes with the business of Gaussian, Inc. or will provide
 assistance to any competitor of Gaussian, Inc.  The licensee
 of this program is prohibited from giving any competitor of
 Gaussian, Inc. access to this program.  By using this program,
 the user acknowledges that Gaussian, Inc. is engaged in the
 business of creating and licensing software in the field of
 computational chemistry and represents and warrants to the
 licensee that it is not a competitor of Gaussian, Inc. and that
 it will not use this program in any manner prohibited above.
 ---------------------------------------------------------------
  

 Cite this work as:
 Gaussian 09, Revision E.01,
 M. J. Frisch, G. W. Trucks, H. B. Schlegel, G. E. Scuseria, 
 M. A. Robb, J. R. Cheeseman, G. Scalmani, V. Barone, B. Mennucci, 
 G. A. Petersson, H. Nakatsuji, M. Caricato, X. Li, H. P. Hratchian, 
 A. F. Izmaylov, J. Bloino, G. Zheng, J. L. Sonnenberg, M. Hada, 
 M. Ehara, K. Toyota, R. Fukuda, J. Hasegawa, M. Ishida, T. Nakajima, 
 Y. Honda, O. Kitao, H. Nakai, T. Vreven, J. A. Montgomery, Jr., 
 J. E. Peralta, F. Ogliaro, M. Bearpark, J. J. Heyd, E. Brothers, 
 K. N. Kudin, V. N. Staroverov, T. Keith, R. Kobayashi, J. Normand, 
 K. Raghavachari, A. Rendell, J. C. Burant, S. S. Iyengar, J. Tomasi, 
 M. Cossi, N. Rega, J. M. Millam, M. Klene, J. E. Knox, J. B. Cross, 
 V. Bakken, C. Adamo, J. Jaramillo, R. Gomperts, R. E. Stratmann, 
 O. Yazyev, A. J. Austin, R. Cammi, C. Pomelli, J. W. Ochterski, 
 R. L. Martin, K. Morokuma, V. G. Zakrzewski, G. A. Voth, 
 P. Salvador, J. J. Dannenberg, S. Dapprich, A. D. Daniels, 
 O. Farkas, J. B. Foresman, J. V. Ortiz, J. Cioslowski, 
 and D. J. Fox, Gaussian, Inc., Wallingford CT, 2013.
 
 ******************************************
 Gaussian 09:  EM64L-G09RevE.01 30-Nov-2015
                 5-Mar-2019 
 ******************************************
 ----------------------------------------------------------------------
 # mp2/cc-pVDZ irc(reverse, calcfc, maxpoints=64, stepsize=5, tight) in
 tegral(grid=superfine) scf(maxcyc=256)
 ----------------------------------------------------------------------
 1/7=10,10=4,18=10,22=2,38=1,39=5,42=64,44=3/1,23;
 2/12=2,17=6,18=5,29=1,40=1/2;
 3/5=16,11=9,16=1,25=1,30=1,71=2,75=-7,140=1/1,2,3;
 4//1;
 5/5=2,7=256,38=5/2;
 8/6=3,8=1,10=1,19=11,30=-1/1;
 9/15=3,16=-3/6;
 11/6=1,8=1,15=11,17=12,24=-1,27=1,28=-2,29=300,32=6,42=3/1,2,10;
 10/6=2,21=1/2;
 8/6=4,8=1,10=1,19=11,30=-1/11,4;
 10/5=1,20=4/2;
 11/12=2,14=11,16=1,17=2,28=-2,42=3/2,10,12;
 6/7=2,8=2,9=2,10=2/1;
 7/10=1,12=2,25=1,44=2/1,2,3,16;
 1/7=10,10=4,18=10,22=2,39=5,42=64,44=3/23(2);
 2/29=1/2;
 99/5=20/99;
 2/29=1/2;
 3/5=16,11=9,16=1,25=1,30=1,71=2,75=-7,140=1/1,2,3;
 4/5=5,16=3,69=1/1;
 5/5=2,7=256,38=5/2;
 8/6=3,8=1,10=1,19=11,30=-1/1;
 9/15=3,16=-3/6;
 11/6=1,8=1,15=11,17=12,24=-1,27=1,28=-2,29=300,32=6,42=3/1,2,10;
 10/6=2,21=1/2;
 8/6=4,8=1,10=1,19=11,30=-1/11,4;
 10/5=1,20=4/2;
 11/12=2,14=11,16=1,17=2,28=-2,42=3/2,10,12;
 7/10=1,12=2,25=1,44=2/1,2,3,16;
 1/7=10,18=10,22=2,39=5,42=64,44=3/23(-12);
 2/29=1/2;
 6/7=2,8=2,9=2,10=2/1;
 99/5=20/99;
 -------------------------
 OH-chloromethane_reactant
 -------------------------
 Symbolic Z-matrix:
 Charge = -1 Multiplicity = 1
 Cl                   -1.68502  -0.01662   0.00001 
 C                     1.10691   0.00326  -0.00001 
 H                     0.71075  -0.50627   0.88965 
 H                     0.71074  -0.50635  -0.88961 
 H                     0.71139   1.02343  -0.00005 
 O                     2.54023   0.0857   -0.00002 
 H                     2.8352   -0.83265   0.00003 
 
 IRC-IRC-IRC-IRC-IRC-IRC-IRC-IRC-IRC-IRC-IRC-IRC-IRC-IRC-IRC-IRC-IRC-IRC
 ------------------------------------------------------------------------
 INPUT DATA FOR L123
 ------------------------------------------------------------------------
 GENERAL PARAMETERS:
 Rxn path following direction = Reverse
 Maximum points per path      =  64
 Step size                    =   0.050 bohr
 Integration scheme           = HPC                                 
    Redo corrector integration= Yes                                 
    DWI Weight Power          =  2
    DWI will use Hessian update vectors when possible.
    Max correction cycles     =  20
 Initial Hessian              = CalcFC
 Hessian evaluation           = All updating
 Hessian updating method      = Bofill                              
 ------------------------------------------------------------------------
 IRC-IRC-IRC-IRC-IRC-IRC-IRC-IRC-IRC-IRC-IRC-IRC-IRC-IRC-IRC-IRC-IRC-IRC
                          Input orientation:                          
 ---------------------------------------------------------------------
 Center     Atomic      Atomic             Coordinates (Angstroms)
 Number     Number       Type             X           Y           Z
 ---------------------------------------------------------------------
      1         17           0       -1.685018   -0.016619    0.000009
      2          6           0        1.106906    0.003259   -0.000005
      3          1           0        0.710747   -0.506273    0.889651
      4          1           0        0.710739   -0.506354   -0.889611
      5          1           0        0.711393    1.023428   -0.000050
      6          8           0        2.540226    0.085698   -0.000016
      7          1           0        2.835201   -0.832651    0.000025
 ---------------------------------------------------------------------
                    Distance matrix (angstroms):
                    1          2          3          4          5
     1  Cl   0.000000
     2  C    2.791995   0.000000
     3  H    2.602098   1.099114   0.000000
     4  H    2.602098   1.099114   1.779262   0.000000
     5  H    2.612371   1.094155   1.769620   1.769619   0.000000
     6  O    4.226483   1.435689   2.118710   2.118709   2.055229
     7  H    4.593287   1.919830   2.326212   2.326212   2.820565
                    6          7
     6  O    0.000000
     7  H    0.964560   0.000000
 Symmetry turned off by external request.
 Stoichiometry    CH4ClO(1-)
 Framework group  C1[X(CH4ClO)]
 Deg. of freedom    15
 Full point group                 C1      NOp   1
 Rotational constants (GHZ):    127.1938937      2.2122501      2.2046959
 Standard basis: CC-pVDZ (5D, 7F)
    66 basis functions,   165 primitive gaussians,    69 cartesian basis functions
    18 alpha electrons       18 beta electrons
       nuclear repulsion energy        88.6853460021 Hartrees.
 NAtoms=    7 NActive=    7 NUniq=    7 SFac= 1.00D+00 NAtFMM=   60 NAOKFM=F Big=F
 Integral buffers will be    131072 words long.
 Raffenetti 1 integral format.
 Two-electron integral symmetry is turned off.
 One-electron integrals computed using PRISM.
 NBasis=    66 RedAO= T EigKep=  1.54D-02  NBF=    66
 NBsUse=    66 1.00D-06 EigRej= -1.00D+00 NBFU=    66
 ExpMin= 1.22D-01 ExpMax= 1.28D+05 ExpMxC= 1.24D+03 IAcc=3 IRadAn=         7 AccDes= 0.00D+00
 Harris functional with IExCor=  205 and IRadAn=       7 diagonalized for initial guess.
 HarFok:  IExCor=  205 AccDes= 0.00D+00 IRadAn=         7 IDoV= 1 UseB2=F ITyADJ=14
 ICtDFT=  3500011 ScaDFX=  1.000000  1.000000  1.000000  1.000000
 FoFCou: FMM=F IPFlag=           0 FMFlag=      100000 FMFlg1=           0
         NFxFlg=           0 DoJE=T BraDBF=F KetDBF=T FulRan=T
         wScrn=  0.000000 ICntrl=     500 IOpCl=  0 I1Cent=   200000004 NGrid=           0
         NMat0=    1 NMatS0=      1 NMatT0=    0 NMatD0=    1 NMtDS0=    0 NMtDT0=    0
 Symmetry not used in FoFCou.
 Keep R1 ints in memory in canonical form, NReq=3411288.
 Requested convergence on RMS density matrix=1.00D-08 within 256 cycles.
 Requested convergence on MAX density matrix=1.00D-06.
 Requested convergence on             energy=1.00D-06.
 No special actions if energy rises.
 SCF Done:  E(RHF) =  -574.588936765     A.U. after   11 cycles
            NFock= 11  Conv=0.84D-08     -V/T= 2.0000
 ExpMin= 1.22D-01 ExpMax= 1.28D+05 ExpMxC= 1.24D+03 IAcc=3 IRadAn=         7 AccDes= 0.00D+00
 HarFok:  IExCor=  205 AccDes= 0.00D+00 IRadAn=         7 IDoV=-2 UseB2=F ITyADJ=14
 ICtDFT= 12500011 ScaDFX=  1.000000  1.000000  1.000000  1.000000
 Range of M.O.s used for correlation:     8    66
 NBasis=    66 NAE=    18 NBE=    18 NFC=     7 NFV=     0
 NROrb=     59 NOA=    11 NOB=    11 NVA=    48 NVB=    48
 Disk-based method using ON**2 memory for 11 occupieds at a time.
 Permanent disk used for amplitudes=      919080 words.
 Estimated scratch disk usage=     7102772 words.
 Actual    scratch disk usage=     7102772 words.
 JobTyp=1 Pass  1:  I=   8 to  18 NPSUse=  1 ParTrn=F ParDer=F DoDerP=T.
 (rs|ai) integrals will be sorted in core.
 Spin components of T(2) and E(2):
     alpha-alpha T2 =       0.1848387162D-01 E2=     -0.5961475507D-01
     alpha-beta  T2 =       0.1102225154D+00 E2=     -0.3603859017D+00
     beta-beta   T2 =       0.1848387162D-01 E2=     -0.5961475507D-01
 ANorm=    0.1071069680D+01
 E2 =    -0.4796154119D+00 EUMP2 =    -0.57506855217674D+03
 G2DrvN: will do     8 centers at a time, making    1 passes.
 Calling FoFCou, ICntrl=  3107 FMM=F I1Cent=   0 AccDes= 0.00D+00.
 End of G2Drv F.D. properties file   721 does not exist.
 End of G2Drv F.D. properties file   722 does not exist.
 End of G2Drv F.D. properties file   788 does not exist.
          IDoAtm=1111111
          Differentiating once with respect to electric field.
                with respect to dipole field.
          Differentiating once with respect to nuclear coordinates.
 Keep R1 ints in memory in canonical form, NReq=3351733.
          There are    24 degrees of freedom in the 1st order CPHF.  IDoFFX=6 NUNeed=    24.
     21 vectors produced by pass  0 Test12= 3.60D-15 4.17D-09 XBig12= 6.84D+00 1.32D+00.
 AX will form    21 AO Fock derivatives at one time.
     21 vectors produced by pass  1 Test12= 3.60D-15 4.17D-09 XBig12= 2.19D-01 1.40D-01.
     21 vectors produced by pass  2 Test12= 3.60D-15 4.17D-09 XBig12= 8.48D-03 2.26D-02.
     21 vectors produced by pass  3 Test12= 3.60D-15 4.17D-09 XBig12= 1.19D-04 2.68D-03.
     21 vectors produced by pass  4 Test12= 3.60D-15 4.17D-09 XBig12= 8.86D-07 2.49D-04.
     21 vectors produced by pass  5 Test12= 3.60D-15 4.17D-09 XBig12= 5.37D-09 1.55D-05.
     12 vectors produced by pass  6 Test12= 3.60D-15 4.17D-09 XBig12= 2.82D-11 1.15D-06.
      3 vectors produced by pass  7 Test12= 3.60D-15 4.17D-09 XBig12= 1.51D-13 7.00D-08.
      1 vectors produced by pass  8 Test12= 3.60D-15 4.17D-09 XBig12= 6.82D-16 4.76D-09.
 InvSVY:  IOpt=1 It=  1 EMax= 3.33D-16
 Solved reduced A of dimension   142 with    24 vectors.
 End of Minotr F.D. properties file   721 does not exist.
 End of Minotr F.D. properties file   722 does not exist.
 End of Minotr F.D. properties file   788 does not exist.
 MDV=    33554432.
 Form MO integral derivatives with frozen-active canonical formalism.
 Discarding MO integrals.
 Reordered first order wavefunction length =      1492992
 In DefCFB: NBatch=  1 ICI= 18 ICA= 48 LFMax= 18
            Large arrays: LIAPS=    15738624 LIARS=     7928928 words.
 Semi-Direct transformation.
 ModeAB=           4 MOrb=            18 LenV=      33288660
 LASXX=      2037645 LTotXX=     2037645 LenRXX=     4178286
 LTotAB=     2140641 MaxLAS=     2867832 LenRXY=           0
 NonZer=     6215931 LenScr=    10097152 LnRSAI=     2867832
 LnScr1=     5017600 LExtra=           0 Total=     22160870
 MaxDsk=          -1 SrtSym=           T ITran=            4
 JobTyp=0 Pass  1:  I=   1 to  18.
 (rs|ai) integrals will be sorted in core.
 Spin components of T(2) and E(2):
     alpha-alpha T2 =       0.1848387162D-01 E2=     -0.5961475507D-01
     alpha-beta  T2 =       0.1102225154D+00 E2=     -0.3603859017D+00
     beta-beta   T2 =       0.1848387162D-01 E2=     -0.5961475507D-01
 ANorm=    0.1514721267D+01
 E2 =    -0.4796154119D+00 EUMP2 =    -0.57506855217674D+03
          IDoAtm=1111111
          Differentiating once with respect to electric field.
                with respect to dipole field.
          Differentiating once with respect to nuclear coordinates.
          There are     1 degrees of freedom in the 1st order CPHF.  IDoFFX=0 NUNeed=     1.
 LinEq1:  Iter=  0 NonCon=     1 RMS=3.70D-03 Max=3.43D-02 NDo=     1
 LinEq1:  Iter=  1 NonCon=     1 RMS=8.38D-04 Max=6.54D-03 NDo=     1
 LinEq1:  Iter=  2 NonCon=     1 RMS=1.97D-04 Max=1.30D-03 NDo=     1
 LinEq1:  Iter=  3 NonCon=     1 RMS=7.13D-05 Max=6.86D-04 NDo=     1
 LinEq1:  Iter=  4 NonCon=     1 RMS=1.85D-05 Max=1.55D-04 NDo=     1
 LinEq1:  Iter=  5 NonCon=     1 RMS=4.18D-06 Max=4.61D-05 NDo=     1
 LinEq1:  Iter=  6 NonCon=     1 RMS=8.91D-07 Max=9.19D-06 NDo=     1
 LinEq1:  Iter=  7 NonCon=     1 RMS=1.59D-07 Max=1.20D-06 NDo=     1
 LinEq1:  Iter=  8 NonCon=     1 RMS=2.93D-08 Max=2.09D-07 NDo=     1
 LinEq1:  Iter=  9 NonCon=     1 RMS=4.21D-09 Max=3.94D-08 NDo=     1
 LinEq1:  Iter= 10 NonCon=     1 RMS=8.58D-10 Max=9.84D-09 NDo=     1
 LinEq1:  Iter= 11 NonCon=     1 RMS=1.65D-10 Max=1.43D-09 NDo=     1
 LinEq1:  Iter= 12 NonCon=     0 RMS=3.03D-11 Max=2.52D-10 NDo=     1
 Linear equations converged to 1.000D-10 1.000D-09 after    12 iterations.
 End of Minotr F.D. properties file   721 does not exist.
 End of Minotr F.D. properties file   722 does not exist.
 End of Minotr F.D. properties file   788 does not exist.
 Symmetrizing basis deriv contribution to polar:
 IMax=3 JMax=2 DiffMx= 0.00D+00
 G2DrvN: will do     8 centers at a time, making    1 passes.
 Calling FoFCou, ICntrl=  3107 FMM=F I1Cent=   0 AccDes= 0.00D+00.
 End of G2Drv F.D. properties file   721 does not exist.
 End of G2Drv F.D. properties file   722 does not exist.
 End of G2Drv F.D. properties file   788 does not exist.
 R2 and R3 integrals will be kept in memory, NReq=     6654640.
 DD1Dir will call FoFMem   1 times, MxPair=       342
 NAB=   171 NAA=     0 NBB=     0.
 Discarding MO integrals.

 **********************************************************************

            Population analysis using the SCF density.

 **********************************************************************

 Alpha  occ. eigenvalues -- -104.47557 -20.39661 -11.09352 -10.19828  -7.66455
 Alpha  occ. eigenvalues --   -7.66439  -7.66438  -1.19216  -0.75033  -0.70809
 Alpha  occ. eigenvalues --   -0.51784  -0.44023  -0.41696  -0.33115  -0.28220
 Alpha  occ. eigenvalues --   -0.13380  -0.13338  -0.13152
 Alpha virt. eigenvalues --    0.32380   0.39746   0.44725   0.44802   0.58194
 Alpha virt. eigenvalues --    0.80151   0.81488   0.91165   0.96887   1.03570
 Alpha virt. eigenvalues --    1.05052   1.07067   1.07269   1.08267   1.09753
 Alpha virt. eigenvalues --    1.23003   1.26748   1.28390   1.30412   1.32352
 Alpha virt. eigenvalues --    1.32399   1.34851   1.36142   1.43407   1.49272
 Alpha virt. eigenvalues --    1.58516   1.67574   1.72734   1.82623   1.86451
 Alpha virt. eigenvalues --    2.05867   2.10511   2.12250   2.16270   2.22857
 Alpha virt. eigenvalues --    2.30751   2.50021   2.54261   2.63513   2.66277
 Alpha virt. eigenvalues --    2.92638   2.93882   2.95907   3.46268   3.52784
 Alpha virt. eigenvalues --    3.60725   3.74430   4.22938
          Condensed to atoms (all electrons):
               1          2          3          4          5          6
     1  Cl  17.965283  -0.047124   0.008905   0.008905   0.006868   0.001265
     2  C   -0.047124   4.401281   0.420152   0.420153   0.419903   0.272891
     3  H    0.008905   0.420152   0.646682  -0.035451  -0.027124  -0.029578
     4  H    0.008905   0.420153  -0.035451   0.646682  -0.027124  -0.029578
     5  H    0.006868   0.419903  -0.027124  -0.027124   0.600431  -0.022281
     6  O    0.001265   0.272891  -0.029578  -0.029578  -0.022281   7.894236
     7  H   -0.000336  -0.050024  -0.005317  -0.005317   0.007311   0.351417
               7
     1  Cl  -0.000336
     2  C   -0.050024
     3  H   -0.005317
     4  H   -0.005317
     5  H    0.007311
     6  O    0.351417
     7  H    0.568373
 Mulliken charges:
               1
     1  Cl  -0.943765
     2  C    0.162768
     3  H    0.021730
     4  H    0.021730
     5  H    0.042016
     6  O   -0.438373
     7  H    0.133894
 Sum of Mulliken charges =  -1.00000
 Mulliken charges with hydrogens summed into heavy atoms:
               1
     1  Cl  -0.943765
     2  C    0.248244
     6  O   -0.304479
 APT charges:
               1
     1  Cl  -0.954942
     2  C    0.496311
     3  H   -0.037310
     4  H   -0.037311
     5  H    0.005628
     6  O   -0.667225
     7  H    0.194849
 Sum of APT charges =  -1.00000
 APT charges with hydrogens summed into heavy atoms:
               1
     1  Cl  -0.954942
     2  C    0.427318
     6  O   -0.472377
 Electronic spatial extent (au):  <R**2>=            509.2546
 Charge=             -1.0000 electrons
 Dipole moment (field-independent basis, Debye):
    X=              5.5716    Y=             -1.3845    Z=              0.0000  Tot=              5.7410
 Quadrupole moment (field-independent basis, Debye-Ang):
   XX=            -48.9670   YY=            -27.2722   ZZ=            -28.9987
   XY=             -4.7699   XZ=              0.0003   YZ=             -0.0001
 Traceless Quadrupole moment (field-independent basis, Debye-Ang):
   XX=            -13.8877   YY=              7.8071   ZZ=              6.0806
   XY=             -4.7699   XZ=              0.0003   YZ=             -0.0001
 Octapole moment (field-independent basis, Debye-Ang**2):
  XXX=             13.2620  YYY=              0.1676  ZZZ=             -0.0000  XYY=              6.4823
  XXY=            -13.2494  XXZ=              0.0006  XZZ=              1.8813  YZZ=             -0.2054
  YYZ=             -0.0001  XYZ=             -0.0002
 Hexadecapole moment (field-independent basis, Debye-Ang**3):
 XXXX=           -655.3776 YYYY=            -37.2263 ZZZZ=            -37.1742 XXXY=            -41.6528
 XXXZ=              0.0035 YYYX=             -4.3723 YYYZ=             -0.0000 ZZZX=              0.0014
 ZZZY=              0.0000 XXYY=            -92.9980 XXZZ=           -105.3140 YYZZ=            -12.6638
 XXYZ=             -0.0004 YYXZ=              0.0005 ZZXY=             -0.7407
 N-N= 8.868534600208D+01 E-N=-1.552766433076D+03  KE= 5.746077927727D+02
  Exact polarizability:  34.445  -1.439  22.378  -0.000  -0.000  20.151
 Approx polarizability:  25.175  -0.692  20.733  -0.000  -0.000  18.372
 Calling FoFJK, ICntrl=  10100127 FMM=F ISym2X=0 I1Cent= 0 IOpClX= 0 NMat=1 NMatS=1 NMatT=0.
 -------------------------------------------------------------------
 Center     Atomic                   Forces (Hartrees/Bohr)
 Number     Number              X              Y              Z
 -------------------------------------------------------------------
      1       17          -0.020364755   -0.000644766    0.000000127
      2        6           0.008156617    0.001638997   -0.000000220
      3        1           0.000224559   -0.000158147    0.000406416
      4        1           0.000224478   -0.000158224   -0.000406393
      5        1           0.000799009   -0.000204598    0.000000038
      6        8           0.010314399   -0.000383845    0.000000035
      7        1           0.000645693   -0.000089416   -0.000000003
 -------------------------------------------------------------------
 Cartesian Forces:  Max     0.020364755 RMS     0.005311606
 IRC-IRC-IRC-IRC-IRC-IRC-IRC-IRC-IRC-IRC-IRC-IRC-IRC-IRC-IRC-IRC-IRC-IRC
          ******** Start new reaction path calculation ********
 WARNING: NO IMAGINARY FREQUENCIES AT TS!
 Supplied step size of   0.0500 bohr.
    Integration on MW PES will use step size of   0.0774 sqrt(amu)*bohr.
 Point Number:   0          Path Number:   1
 Calculating another point on the path.
 IRC-IRC-IRC-IRC-IRC-IRC-IRC-IRC-IRC-IRC-IRC-IRC-IRC-IRC-IRC-IRC-IRC-IRC
                          Input orientation:                          
 ---------------------------------------------------------------------
 Center     Atomic      Atomic             Coordinates (Angstroms)
 Number     Number       Type             X           Y           Z
 ---------------------------------------------------------------------
      1         17           0       -1.684979   -0.016625   -0.001414
      2          6           0        1.106945    0.003253    0.007756
      3          1           0        0.717849   -0.504800    0.901698
      4          1           0        0.703715   -0.507837   -0.877564
      5          1           0        0.711432    1.023423    0.008621
      6          8           0        2.540265    0.085692   -0.004015
      7          1           0        2.835240   -0.832658   -0.012312
 ---------------------------------------------------------------------
                    Distance matrix (angstroms):
                    1          2          3          4          5
     1  Cl   0.000000
     2  C    2.792010   0.000000
     3  H    2.612951   1.099385   0.000000
     4  H    2.591290   1.098908   1.779321   0.000000
     5  H    2.612391   1.094155   1.770055   1.769220   0.000000
     6  O    4.226483   1.435737   2.119008   2.118556   2.055268
     7  H    4.593300   1.919936   2.329431   2.323267   2.820644
                    6          7
     6  O    0.000000
     7  H    0.964596   0.000000
 Symmetry turned off by external request.
 Stoichiometry    CH4ClO(1-)
 Framework group  C1[X(CH4ClO)]
 Deg. of freedom    15
 Full point group                 C1      NOp   1
 Rotational constants (GHZ):    127.1435786      2.2122343      2.2046946
 Standard basis: CC-pVDZ (5D, 7F)
    66 basis functions,   165 primitive gaussians,    69 cartesian basis functions
    18 alpha electrons       18 beta electrons
       nuclear repulsion energy        88.6840265170 Hartrees.
 NAtoms=    7 NActive=    7 NUniq=    7 SFac= 1.00D+00 NAtFMM=   60 NAOKFM=F Big=F
 Integral buffers will be    131072 words long.
 Raffenetti 1 integral format.
 Two-electron integral symmetry is turned off.
 One-electron integrals computed using PRISM.
 NBasis=    66 RedAO= T EigKep=  1.54D-02  NBF=    66
 NBsUse=    66 1.00D-06 EigRej= -1.00D+00 NBFU=    66
 Initial guess from the checkpoint file:  "/localscratch/rjackson.12297310.0/Gau-1345.chk"
 B after Tr=     0.000074   -0.000012    0.000617
         Rot=    1.000000   -0.000288   -0.000060   -0.000000 Ang=  -0.03 deg.
 ExpMin= 1.22D-01 ExpMax= 1.28D+05 ExpMxC= 1.24D+03 IAcc=3 IRadAn=         5 AccDes= 0.00D+00
 Harris functional with IExCor=  205 and IRadAn=       5 diagonalized for initial guess.
 HarFok:  IExCor=  205 AccDes= 0.00D+00 IRadAn=         5 IDoV= 1 UseB2=F ITyADJ=14
 ICtDFT=  3500011 ScaDFX=  1.000000  1.000000  1.000000  1.000000
 FoFCou: FMM=F IPFlag=           0 FMFlag=      100000 FMFlg1=           0
         NFxFlg=           0 DoJE=T BraDBF=F KetDBF=T FulRan=T
         wScrn=  0.000000 ICntrl=     500 IOpCl=  0 I1Cent=   200000004 NGrid=           0
         NMat0=    1 NMatS0=      1 NMatT0=    0 NMatD0=    1 NMtDS0=    0 NMtDT0=    0
 Symmetry not used in FoFCou.
 Keep R1 ints in memory in canonical form, NReq=3411288.
 Requested convergence on RMS density matrix=1.00D-08 within 256 cycles.
 Requested convergence on MAX density matrix=1.00D-06.
 Requested convergence on             energy=1.00D-06.
 No special actions if energy rises.
 SCF Done:  E(RHF) =  -574.588931367     A.U. after    9 cycles
            NFock=  9  Conv=0.43D-08     -V/T= 2.0000
 ExpMin= 1.22D-01 ExpMax= 1.28D+05 ExpMxC= 1.24D+03 IAcc=3 IRadAn=         7 AccDes= 0.00D+00
 HarFok:  IExCor=  205 AccDes= 0.00D+00 IRadAn=         7 IDoV=-2 UseB2=F ITyADJ=14
 ICtDFT= 12500011 ScaDFX=  1.000000  1.000000  1.000000  1.000000
 Range of M.O.s used for correlation:     8    66
 NBasis=    66 NAE=    18 NBE=    18 NFC=     7 NFV=     0
 NROrb=     59 NOA=    11 NOB=    11 NVA=    48 NVB=    48
 Fully direct method using O(ONN) memory.
 JobTyp=1 Pass  1:  I=   8 to  18 NPSUse=  1 ParTrn=F ParDer=F DoDerP=T.
 Spin components of T(2) and E(2):
     alpha-alpha T2 =       0.1848425985D-01 E2=     -0.5961507861D-01
     alpha-beta  T2 =       0.1102255287D+00 E2=     -0.3603890995D+00
     beta-beta   T2 =       0.1848425985D-01 E2=     -0.5961507861D-01
 ANorm=    0.1071071449D+01
 E2 =    -0.4796192567D+00 EUMP2 =    -0.57506855062389D+03
          IDoAtm=1111111
          Differentiating once with respect to electric field.
                with respect to dipole field.
          Differentiating once with respect to nuclear coordinates.
 Keep R1 ints in memory in canonical form, NReq=3353317.
          There are     1 degrees of freedom in the 1st order CPHF.  IDoFFX=0 NUNeed=     1.
 LinEq1:  Iter=  0 NonCon=     1 RMS=3.70D-03 Max=3.43D-02 NDo=     1
 AX will form     1 AO Fock derivatives at one time.
 LinEq1:  Iter=  1 NonCon=     1 RMS=8.38D-04 Max=6.00D-03 NDo=     1
 LinEq1:  Iter=  2 NonCon=     1 RMS=1.97D-04 Max=1.30D-03 NDo=     1
 LinEq1:  Iter=  3 NonCon=     1 RMS=7.13D-05 Max=6.86D-04 NDo=     1
 LinEq1:  Iter=  4 NonCon=     1 RMS=1.85D-05 Max=1.55D-04 NDo=     1
 LinEq1:  Iter=  5 NonCon=     1 RMS=4.18D-06 Max=4.52D-05 NDo=     1
 LinEq1:  Iter=  6 NonCon=     1 RMS=8.91D-07 Max=9.18D-06 NDo=     1
 LinEq1:  Iter=  7 NonCon=     1 RMS=1.59D-07 Max=1.20D-06 NDo=     1
 LinEq1:  Iter=  8 NonCon=     1 RMS=2.94D-08 Max=2.09D-07 NDo=     1
 LinEq1:  Iter=  9 NonCon=     1 RMS=4.25D-09 Max=3.89D-08 NDo=     1
 LinEq1:  Iter= 10 NonCon=     1 RMS=8.82D-10 Max=9.43D-09 NDo=     1
 LinEq1:  Iter= 11 NonCon=     1 RMS=1.74D-10 Max=1.30D-09 NDo=     1
 LinEq1:  Iter= 12 NonCon=     0 RMS=3.41D-11 Max=3.37D-10 NDo=     1
 Linear equations converged to 1.000D-10 1.000D-09 after    12 iterations.
 End of Minotr F.D. properties file   721 does not exist.
 End of Minotr F.D. properties file   722 does not exist.
 End of Minotr F.D. properties file   788 does not exist.
 Symmetrizing basis deriv contribution to polar:
 IMax=3 JMax=2 DiffMx= 0.00D+00
 Calling FoFJK, ICntrl=  10002127 FMM=F ISym2X=0 I1Cent= 0 IOpClX= 0 NMat=1 NMatS=1 NMatT=0.
 -------------------------------------------------------------------
 Center     Atomic                   Forces (Hartrees/Bohr)
 Number     Number              X              Y              Z
 -------------------------------------------------------------------
      1       17          -0.020368005   -0.000644147    0.000035943
      2        6           0.008171093    0.001616030   -0.000088837
      3        1           0.000227891   -0.000153316    0.000375294
      4        1           0.000242375   -0.000146327   -0.000401242
      5        1           0.000801806   -0.000203558   -0.000006066
      6        8           0.010299064   -0.000412228    0.000073702
      7        1           0.000625777   -0.000056454    0.000011206
 -------------------------------------------------------------------
 Cartesian Forces:  Max     0.020368005 RMS     0.005311447
 IRC-IRC-IRC-IRC-IRC-IRC-IRC-IRC-IRC-IRC-IRC-IRC-IRC-IRC-IRC-IRC-IRC-IRC
 Pt  1 Step number   1 out of a maximum of  20
 Modified Bulirsch-Stoer Extrapolation Cycles:
    EPS =    0.000000333333333
 Maximum DWI energy   std dev =  0.000096134 at pt  1536
 Maximum DWI gradient std dev =  1.740864561 at pt     4
 WARNING: Bulirsch-Stoer Method is not Converging
 CORRECTOR INTEGRATION CONVERGENCE:
   Recorrection delta-x convergence threshold:    0.001826
   Delta-x Convergence NOT Met
 IRC-IRC-IRC-IRC-IRC-IRC-IRC-IRC-IRC-IRC-IRC-IRC-IRC-IRC-IRC-IRC-IRC-IRC
                          Input orientation:                          
 ---------------------------------------------------------------------
 Center     Atomic      Atomic             Coordinates (Angstroms)
 Number     Number       Type             X           Y           Z
 ---------------------------------------------------------------------
      1         17           0       -1.683309   -0.016572   -0.000198
      2          6           0        1.105063    0.003002    0.001117
      3          1           0        0.710678   -0.506165    0.891148
      4          1           0        0.708630   -0.506656   -0.887634
      5          1           0        0.709411    1.023371    0.001214
      6          8           0        2.538408    0.085770   -0.000591
      7          1           0        2.833459   -0.832518   -0.001764
 ---------------------------------------------------------------------
                    Distance matrix (angstroms):
                    1          2          3          4          5
     1  Cl   0.000000
     2  C    2.788441   0.000000
     3  H    2.601032   1.098610   0.000000
     4  H    2.597902   1.098540   1.778783   0.000000
     5  H    2.608945   1.094392   1.769595   1.769473   0.000000
     6  O    4.222957   1.435733   2.118061   2.117995   2.055317
     7  H    4.589876   1.919753   2.325940   2.325049   2.820623
                    6          7
     6  O    0.000000
     7  H    0.964526   0.000000
 Symmetry turned off by external request.
 Stoichiometry    CH4ClO(1-)
 Framework group  C1[X(CH4ClO)]
 Deg. of freedom    15
 Full point group                 C1      NOp   1
 Rotational constants (GHZ):    127.2185067      2.2162739      2.2086837
 Standard basis: CC-pVDZ (5D, 7F)
    66 basis functions,   165 primitive gaussians,    69 cartesian basis functions
    18 alpha electrons       18 beta electrons
       nuclear repulsion energy        88.7405081602 Hartrees.
 NAtoms=    7 NActive=    7 NUniq=    7 SFac= 1.00D+00 NAtFMM=   60 NAOKFM=F Big=F
 Integral buffers will be    131072 words long.
 Raffenetti 1 integral format.
 Two-electron integral symmetry is turned off.
 One-electron integrals computed using PRISM.
 NBasis=    66 RedAO= T EigKep=  1.54D-02  NBF=    66
 NBsUse=    66 1.00D-06 EigRej= -1.00D+00 NBFU=    66
 Initial guess from the checkpoint file:  "/localscratch/rjackson.12297310.0/Gau-1345.chk"
 B after Tr=    -0.000206   -0.000004   -0.000528
         Rot=    1.000000    0.000239    0.000052    0.000000 Ang=   0.03 deg.
 ExpMin= 1.22D-01 ExpMax= 1.28D+05 ExpMxC= 1.24D+03 IAcc=3 IRadAn=         5 AccDes= 0.00D+00
 Harris functional with IExCor=  205 and IRadAn=       5 diagonalized for initial guess.
 HarFok:  IExCor=  205 AccDes= 0.00D+00 IRadAn=         5 IDoV= 1 UseB2=F ITyADJ=14
 ICtDFT=  3500011 ScaDFX=  1.000000  1.000000  1.000000  1.000000
 FoFCou: FMM=F IPFlag=           0 FMFlag=      100000 FMFlg1=           0
         NFxFlg=           0 DoJE=T BraDBF=F KetDBF=T FulRan=T
         wScrn=  0.000000 ICntrl=     500 IOpCl=  0 I1Cent=   200000004 NGrid=           0
         NMat0=    1 NMatS0=      1 NMatT0=    0 NMatD0=    1 NMtDS0=    0 NMtDT0=    0
 Symmetry not used in FoFCou.
 Keep R1 ints in memory in canonical form, NReq=3411288.
 Requested convergence on RMS density matrix=1.00D-08 within 256 cycles.
 Requested convergence on MAX density matrix=1.00D-06.
 Requested convergence on             energy=1.00D-06.
 No special actions if energy rises.
 SCF Done:  E(RHF) =  -574.588782986     A.U. after    9 cycles
            NFock=  9  Conv=0.45D-08     -V/T= 2.0000
 ExpMin= 1.22D-01 ExpMax= 1.28D+05 ExpMxC= 1.24D+03 IAcc=3 IRadAn=         7 AccDes= 0.00D+00
 HarFok:  IExCor=  205 AccDes= 0.00D+00 IRadAn=         7 IDoV=-2 UseB2=F ITyADJ=14
 ICtDFT= 12500011 ScaDFX=  1.000000  1.000000  1.000000  1.000000
 Range of M.O.s used for correlation:     8    66
 NBasis=    66 NAE=    18 NBE=    18 NFC=     7 NFV=     0
 NROrb=     59 NOA=    11 NOB=    11 NVA=    48 NVB=    48
 Fully direct method using O(ONN) memory.
 JobTyp=1 Pass  1:  I=   8 to  18 NPSUse=  1 ParTrn=F ParDer=F DoDerP=T.
 Spin components of T(2) and E(2):
     alpha-alpha T2 =       0.1848536193D-01 E2=     -0.5962070560D-01
     alpha-beta  T2 =       0.1102157014D+00 E2=     -0.3603895872D+00
     beta-beta   T2 =       0.1848536193D-01 E2=     -0.5962070560D-01
 ANorm=    0.1071067890D+01
 E2 =    -0.4796309984D+00 EUMP2 =    -0.57506841398455D+03
          IDoAtm=1111111
          Differentiating once with respect to electric field.
                with respect to dipole field.
          Differentiating once with respect to nuclear coordinates.
 Keep R1 ints in memory in canonical form, NReq=3353317.
          There are     1 degrees of freedom in the 1st order CPHF.  IDoFFX=0 NUNeed=     1.
 LinEq1:  Iter=  0 NonCon=     1 RMS=3.70D-03 Max=3.44D-02 NDo=     1
 AX will form     1 AO Fock derivatives at one time.
 LinEq1:  Iter=  1 NonCon=     1 RMS=8.37D-04 Max=6.51D-03 NDo=     1
 LinEq1:  Iter=  2 NonCon=     1 RMS=1.97D-04 Max=1.30D-03 NDo=     1
 LinEq1:  Iter=  3 NonCon=     1 RMS=7.12D-05 Max=6.86D-04 NDo=     1
 LinEq1:  Iter=  4 NonCon=     1 RMS=1.85D-05 Max=1.54D-04 NDo=     1
 LinEq1:  Iter=  5 NonCon=     1 RMS=4.18D-06 Max=4.61D-05 NDo=     1
 LinEq1:  Iter=  6 NonCon=     1 RMS=8.90D-07 Max=9.19D-06 NDo=     1
 LinEq1:  Iter=  7 NonCon=     1 RMS=1.59D-07 Max=1.20D-06 NDo=     1
 LinEq1:  Iter=  8 NonCon=     1 RMS=2.93D-08 Max=2.09D-07 NDo=     1
 LinEq1:  Iter=  9 NonCon=     1 RMS=4.21D-09 Max=3.93D-08 NDo=     1
 LinEq1:  Iter= 10 NonCon=     1 RMS=8.59D-10 Max=9.85D-09 NDo=     1
 LinEq1:  Iter= 11 NonCon=     1 RMS=1.65D-10 Max=1.44D-09 NDo=     1
 LinEq1:  Iter= 12 NonCon=     0 RMS=3.04D-11 Max=2.50D-10 NDo=     1
 Linear equations converged to 1.000D-10 1.000D-09 after    12 iterations.
 End of Minotr F.D. properties file   721 does not exist.
 End of Minotr F.D. properties file   722 does not exist.
 End of Minotr F.D. properties file   788 does not exist.
 Symmetrizing basis deriv contribution to polar:
 IMax=3 JMax=2 DiffMx= 0.00D+00
 Calling FoFJK, ICntrl=  10002127 FMM=F ISym2X=0 I1Cent= 0 IOpClX= 0 NMat=1 NMatS=1 NMatT=0.
 -------------------------------------------------------------------
 Center     Atomic                   Forces (Hartrees/Bohr)
 Number     Number              X              Y              Z
 -------------------------------------------------------------------
      1       17          -0.020626186   -0.000652595    0.000005316
      2        6           0.008492634    0.002128988   -0.000012583
      3        1           0.000084007   -0.000313701    0.000666428
      4        1           0.000085459   -0.000313359   -0.000670459
      5        1           0.000879766   -0.000383475   -0.000000842
      6        8           0.010412761   -0.000344638    0.000010651
      7        1           0.000671560   -0.000121220    0.000001489
 -------------------------------------------------------------------
 Cartesian Forces:  Max     0.020626186 RMS     0.005405283
 IRC-IRC-IRC-IRC-IRC-IRC-IRC-IRC-IRC-IRC-IRC-IRC-IRC-IRC-IRC-IRC-IRC-IRC
 Error in corrector energy =          -0.0002343155
 Magnitude of corrector gradient =     0.0099584765
 Magnitude of analytic gradient =      0.0247701205
 Magnitude of difference =             0.0335517373
 Angle between gradients (degrees)=  146.8372
 Pt  1 Step number   2 out of a maximum of  20
 Modified Bulirsch-Stoer Extrapolation Cycles:
    EPS =    0.000000333333333
 Maximum DWI energy   std dev =  0.000030730 at pt    -1
 Maximum DWI gradient std dev =  2.031218810 at pt     2
 CORRECTOR INTEGRATION CONVERGENCE:
   Recorrection delta-x convergence threshold:    0.001826
   Delta-x Convergence NOT Met
 IRC-IRC-IRC-IRC-IRC-IRC-IRC-IRC-IRC-IRC-IRC-IRC-IRC-IRC-IRC-IRC-IRC-IRC
                          Input orientation:                          
 ---------------------------------------------------------------------
 Center     Atomic      Atomic             Coordinates (Angstroms)
 Number     Number       Type             X           Y           Z
 ---------------------------------------------------------------------
      1         17           0       -1.684451   -0.016609   -0.000012
      2          6           0        1.106337    0.003155    0.000098
      3          1           0        0.710598   -0.506225    0.889608
      4          1           0        0.710406   -0.506318   -0.889265
      5          1           0        0.710759    1.023487    0.000080
      6          8           0        2.539680    0.085715   -0.000064
      7          1           0        2.834672   -0.832602   -0.000148
 ---------------------------------------------------------------------
                    Distance matrix (angstroms):
                    1          2          3          4          5
     1  Cl   0.000000
     2  C    2.790858   0.000000
     3  H    2.601424   1.098775   0.000000
     4  H    2.601140   1.098768   1.778873   0.000000
     5  H    2.611289   1.094330   1.769542   1.769531   0.000000
     6  O    4.225370   1.435719   2.118361   2.118354   2.055327
     7  H    4.592202   1.919800   2.325914   2.325832   2.820651
                    6          7
     6  O    0.000000
     7  H    0.964535   0.000000
 Symmetry turned off by external request.
 Stoichiometry    CH4ClO(1-)
 Framework group  C1[X(CH4ClO)]
 Deg. of freedom    15
 Full point group                 C1      NOp   1
 Rotational constants (GHZ):    127.2158924      2.2135253      2.2059555
 Standard basis: CC-pVDZ (5D, 7F)
    66 basis functions,   165 primitive gaussians,    69 cartesian basis functions
    18 alpha electrons       18 beta electrons
       nuclear repulsion energy        88.7035897081 Hartrees.
 NAtoms=    7 NActive=    7 NUniq=    7 SFac= 1.00D+00 NAtFMM=   60 NAOKFM=F Big=F
 Integral buffers will be    131072 words long.
 Raffenetti 1 integral format.
 Two-electron integral symmetry is turned off.
 One-electron integrals computed using PRISM.
 NBasis=    66 RedAO= T EigKep=  1.54D-02  NBF=    66
 NBsUse=    66 1.00D-06 EigRej= -1.00D+00 NBFU=    66
 Initial guess from the checkpoint file:  "/localscratch/rjackson.12297310.0/Gau-1345.chk"
 B after Tr=     0.000144    0.000009   -0.000081
         Rot=    1.000000    0.000035    0.000008   -0.000001 Ang=   0.00 deg.
 ExpMin= 1.22D-01 ExpMax= 1.28D+05 ExpMxC= 1.24D+03 IAcc=3 IRadAn=         5 AccDes= 0.00D+00
 Harris functional with IExCor=  205 and IRadAn=       5 diagonalized for initial guess.
 HarFok:  IExCor=  205 AccDes= 0.00D+00 IRadAn=         5 IDoV= 1 UseB2=F ITyADJ=14
 ICtDFT=  3500011 ScaDFX=  1.000000  1.000000  1.000000  1.000000
 FoFCou: FMM=F IPFlag=           0 FMFlag=      100000 FMFlg1=           0
         NFxFlg=           0 DoJE=T BraDBF=F KetDBF=T FulRan=T
         wScrn=  0.000000 ICntrl=     500 IOpCl=  0 I1Cent=   200000004 NGrid=           0
         NMat0=    1 NMatS0=      1 NMatT0=    0 NMatD0=    1 NMtDS0=    0 NMtDT0=    0
 Symmetry not used in FoFCou.
 Keep R1 ints in memory in canonical form, NReq=3411288.
 Requested convergence on RMS density matrix=1.00D-08 within 256 cycles.
 Requested convergence on MAX density matrix=1.00D-06.
 Requested convergence on             energy=1.00D-06.
 No special actions if energy rises.
 SCF Done:  E(RHF) =  -574.588892618     A.U. after    8 cycles
            NFock=  8  Conv=0.48D-08     -V/T= 2.0000
 ExpMin= 1.22D-01 ExpMax= 1.28D+05 ExpMxC= 1.24D+03 IAcc=3 IRadAn=         7 AccDes= 0.00D+00
 HarFok:  IExCor=  205 AccDes= 0.00D+00 IRadAn=         7 IDoV=-2 UseB2=F ITyADJ=14
 ICtDFT= 12500011 ScaDFX=  1.000000  1.000000  1.000000  1.000000
 Range of M.O.s used for correlation:     8    66
 NBasis=    66 NAE=    18 NBE=    18 NFC=     7 NFV=     0
 NROrb=     59 NOA=    11 NOB=    11 NVA=    48 NVB=    48
 Fully direct method using O(ONN) memory.
 JobTyp=1 Pass  1:  I=   8 to  18 NPSUse=  1 ParTrn=F ParDer=F DoDerP=T.
 Spin components of T(2) and E(2):
     alpha-alpha T2 =       0.1848395339D-01 E2=     -0.5961625575D-01
     alpha-beta  T2 =       0.1102165959D+00 E2=     -0.3603830635D+00
     beta-beta   T2 =       0.1848395339D-01 E2=     -0.5961625575D-01
 ANorm=    0.1071066993D+01
 E2 =    -0.4796155750D+00 EUMP2 =    -0.57506850819346D+03
          IDoAtm=1111111
          Differentiating once with respect to electric field.
                with respect to dipole field.
          Differentiating once with respect to nuclear coordinates.
 Keep R1 ints in memory in canonical form, NReq=3353298.
          There are     1 degrees of freedom in the 1st order CPHF.  IDoFFX=0 NUNeed=     1.
 LinEq1:  Iter=  0 NonCon=     1 RMS=3.70D-03 Max=3.43D-02 NDo=     1
 AX will form     1 AO Fock derivatives at one time.
 LinEq1:  Iter=  1 NonCon=     1 RMS=8.37D-04 Max=6.54D-03 NDo=     1
 LinEq1:  Iter=  2 NonCon=     1 RMS=1.97D-04 Max=1.30D-03 NDo=     1
 LinEq1:  Iter=  3 NonCon=     1 RMS=7.12D-05 Max=6.86D-04 NDo=     1
 LinEq1:  Iter=  4 NonCon=     1 RMS=1.85D-05 Max=1.55D-04 NDo=     1
 LinEq1:  Iter=  5 NonCon=     1 RMS=4.18D-06 Max=4.61D-05 NDo=     1
 LinEq1:  Iter=  6 NonCon=     1 RMS=8.90D-07 Max=9.18D-06 NDo=     1
 LinEq1:  Iter=  7 NonCon=     1 RMS=1.59D-07 Max=1.20D-06 NDo=     1
 LinEq1:  Iter=  8 NonCon=     1 RMS=2.93D-08 Max=2.09D-07 NDo=     1
 LinEq1:  Iter=  9 NonCon=     1 RMS=4.21D-09 Max=3.93D-08 NDo=     1
 LinEq1:  Iter= 10 NonCon=     1 RMS=8.58D-10 Max=9.85D-09 NDo=     1
 LinEq1:  Iter= 11 NonCon=     1 RMS=1.65D-10 Max=1.44D-09 NDo=     1
 LinEq1:  Iter= 12 NonCon=     0 RMS=3.03D-11 Max=2.51D-10 NDo=     1
 Linear equations converged to 1.000D-10 1.000D-09 after    12 iterations.
 End of Minotr F.D. properties file   721 does not exist.
 End of Minotr F.D. properties file   722 does not exist.
 End of Minotr F.D. properties file   788 does not exist.
 Symmetrizing basis deriv contribution to polar:
 IMax=3 JMax=2 DiffMx= 0.00D+00
 Calling FoFJK, ICntrl=  10002127 FMM=F ISym2X=0 I1Cent= 0 IOpClX= 0 NMat=1 NMatS=1 NMatT=0.
 -------------------------------------------------------------------
 Center     Atomic                   Forces (Hartrees/Bohr)
 Number     Number              X              Y              Z
 -------------------------------------------------------------------
      1       17          -0.020445650   -0.000648618    0.000000560
      2        6           0.008320488    0.001966618   -0.000001354
      3        1           0.000137788   -0.000259256    0.000583000
      4        1           0.000137877   -0.000259255   -0.000583309
      5        1           0.000849962   -0.000326470   -0.000000032
      6        8           0.010339607   -0.000359264    0.000000995
      7        1           0.000659929   -0.000113754    0.000000140
 -------------------------------------------------------------------
 Cartesian Forces:  Max     0.020445650 RMS     0.005348386
 IRC-IRC-IRC-IRC-IRC-IRC-IRC-IRC-IRC-IRC-IRC-IRC-IRC-IRC-IRC-IRC-IRC-IRC
 Error in corrector energy =          -0.0000748396
 Magnitude of corrector gradient =     0.0025795537
 Magnitude of analytic gradient =      0.0245093857
 Magnitude of difference =             0.0255293013
 Angle between gradients (degrees)=  110.5477
 Pt  1 Step number   3 out of a maximum of  20
 Modified Bulirsch-Stoer Extrapolation Cycles:
    EPS =    0.000000333333333
 Maximum DWI energy   std dev =  0.000009737 at pt  1393
 Maximum DWI gradient std dev =  1.642593720 at pt     2
 CORRECTOR INTEGRATION CONVERGENCE:
   Recorrection delta-x convergence threshold:    0.001826
   Delta-x Convergence NOT Met
 IRC-IRC-IRC-IRC-IRC-IRC-IRC-IRC-IRC-IRC-IRC-IRC-IRC-IRC-IRC-IRC-IRC-IRC
                          Input orientation:                          
 ---------------------------------------------------------------------
 Center     Atomic      Atomic             Coordinates (Angstroms)
 Number     Number       Type             X           Y           Z
 ---------------------------------------------------------------------
      1         17           0       -1.684825   -0.016620    0.000001
      2          6           0        1.106767    0.003219    0.000026
      3          1           0        0.710747   -0.506251    0.889600
      4          1           0        0.710686   -0.506322   -0.889477
      5          1           0        0.711227    1.023465   -0.000004
      6          8           0        2.540095    0.085699   -0.000028
      7          1           0        2.835073   -0.832636   -0.000029
 ---------------------------------------------------------------------
                    Distance matrix (angstroms):
                    1          2          3          4          5
     1  Cl   0.000000
     2  C    2.791663   0.000000
     3  H    2.601901   1.098969   0.000000
     4  H    2.601817   1.098967   1.779076   0.000000
     5  H    2.612058   1.094236   1.769583   1.769579   0.000000
     6  O    4.226159   1.435699   2.118574   2.118572   2.055277
     7  H    4.592969   1.919816   2.326097   2.326074   2.820608
                    6          7
     6  O    0.000000
     7  H    0.964547   0.000000
 Symmetry turned off by external request.
 Stoichiometry    CH4ClO(1-)
 Framework group  C1[X(CH4ClO)]
 Deg. of freedom    15
 Full point group                 C1      NOp   1
 Rotational constants (GHZ):    127.2044138      2.2126223      2.2050623
 Standard basis: CC-pVDZ (5D, 7F)
    66 basis functions,   165 primitive gaussians,    69 cartesian basis functions
    18 alpha electrons       18 beta electrons
       nuclear repulsion energy        88.6909094745 Hartrees.
 NAtoms=    7 NActive=    7 NUniq=    7 SFac= 1.00D+00 NAtFMM=   60 NAOKFM=F Big=F
 Integral buffers will be    131072 words long.
 Raffenetti 1 integral format.
 Two-electron integral symmetry is turned off.
 One-electron integrals computed using PRISM.
 NBasis=    66 RedAO= T EigKep=  1.54D-02  NBF=    66
 NBsUse=    66 1.00D-06 EigRej= -1.00D+00 NBFU=    66
 Initial guess from the checkpoint file:  "/localscratch/rjackson.12297310.0/Gau-1345.chk"
 B after Tr=     0.000045   -0.000002   -0.000006
         Rot=    1.000000    0.000005    0.000000    0.000000 Ang=   0.00 deg.
 ExpMin= 1.22D-01 ExpMax= 1.28D+05 ExpMxC= 1.24D+03 IAcc=3 IRadAn=         5 AccDes= 0.00D+00
 Harris functional with IExCor=  205 and IRadAn=       5 diagonalized for initial guess.
 HarFok:  IExCor=  205 AccDes= 0.00D+00 IRadAn=         5 IDoV= 1 UseB2=F ITyADJ=14
 ICtDFT=  3500011 ScaDFX=  1.000000  1.000000  1.000000  1.000000
 FoFCou: FMM=F IPFlag=           0 FMFlag=      100000 FMFlg1=           0
         NFxFlg=           0 DoJE=T BraDBF=F KetDBF=T FulRan=T
         wScrn=  0.000000 ICntrl=     500 IOpCl=  0 I1Cent=   200000004 NGrid=           0
         NMat0=    1 NMatS0=      1 NMatT0=    0 NMatD0=    1 NMtDS0=    0 NMtDT0=    0
 Symmetry not used in FoFCou.
 Keep R1 ints in memory in canonical form, NReq=3411288.
 Requested convergence on RMS density matrix=1.00D-08 within 256 cycles.
 Requested convergence on MAX density matrix=1.00D-06.
 Requested convergence on             energy=1.00D-06.
 No special actions if energy rises.
 SCF Done:  E(RHF) =  -574.588925129     A.U. after    7 cycles
            NFock=  7  Conv=0.40D-08     -V/T= 2.0000
 ExpMin= 1.22D-01 ExpMax= 1.28D+05 ExpMxC= 1.24D+03 IAcc=3 IRadAn=         7 AccDes= 0.00D+00
 HarFok:  IExCor=  205 AccDes= 0.00D+00 IRadAn=         7 IDoV=-2 UseB2=F ITyADJ=14
 ICtDFT= 12500011 ScaDFX=  1.000000  1.000000  1.000000  1.000000
 Range of M.O.s used for correlation:     8    66
 NBasis=    66 NAE=    18 NBE=    18 NFC=     7 NFV=     0
 NROrb=     59 NOA=    11 NOB=    11 NVA=    48 NVB=    48
 Fully direct method using O(ONN) memory.
 JobTyp=1 Pass  1:  I=   8 to  18 NPSUse=  1 ParTrn=F ParDer=F DoDerP=T.
 Spin components of T(2) and E(2):
     alpha-alpha T2 =       0.1848379088D-01 E2=     -0.5961510524D-01
     alpha-beta  T2 =       0.1102197411D+00 E2=     -0.3603839676D+00
     beta-beta   T2 =       0.1848379088D-01 E2=     -0.5961510524D-01
 ANorm=    0.1071068309D+01
 E2 =    -0.4796141781D+00 EUMP2 =    -0.57506853930661D+03
          IDoAtm=1111111
          Differentiating once with respect to electric field.
                with respect to dipole field.
          Differentiating once with respect to nuclear coordinates.
 Keep R1 ints in memory in canonical form, NReq=3353298.
          There are     1 degrees of freedom in the 1st order CPHF.  IDoFFX=0 NUNeed=     1.
 LinEq1:  Iter=  0 NonCon=     1 RMS=3.70D-03 Max=3.43D-02 NDo=     1
 AX will form     1 AO Fock derivatives at one time.
 LinEq1:  Iter=  1 NonCon=     1 RMS=8.37D-04 Max=6.54D-03 NDo=     1
 LinEq1:  Iter=  2 NonCon=     1 RMS=1.97D-04 Max=1.30D-03 NDo=     1
 LinEq1:  Iter=  3 NonCon=     1 RMS=7.13D-05 Max=6.86D-04 NDo=     1
 LinEq1:  Iter=  4 NonCon=     1 RMS=1.85D-05 Max=1.55D-04 NDo=     1
 LinEq1:  Iter=  5 NonCon=     1 RMS=4.18D-06 Max=4.61D-05 NDo=     1
 LinEq1:  Iter=  6 NonCon=     1 RMS=8.91D-07 Max=9.19D-06 NDo=     1
 LinEq1:  Iter=  7 NonCon=     1 RMS=1.59D-07 Max=1.20D-06 NDo=     1
 LinEq1:  Iter=  8 NonCon=     1 RMS=2.93D-08 Max=2.09D-07 NDo=     1
 LinEq1:  Iter=  9 NonCon=     1 RMS=4.21D-09 Max=3.94D-08 NDo=     1
 LinEq1:  Iter= 10 NonCon=     1 RMS=8.58D-10 Max=9.85D-09 NDo=     1
 LinEq1:  Iter= 11 NonCon=     1 RMS=1.65D-10 Max=1.43D-09 NDo=     1
 LinEq1:  Iter= 12 NonCon=     0 RMS=3.03D-11 Max=2.51D-10 NDo=     1
 Linear equations converged to 1.000D-10 1.000D-09 after    12 iterations.
 End of Minotr F.D. properties file   721 does not exist.
 End of Minotr F.D. properties file   722 does not exist.
 End of Minotr F.D. properties file   788 does not exist.
 Symmetrizing basis deriv contribution to polar:
 IMax=3 JMax=2 DiffMx= 0.00D+00
 Calling FoFJK, ICntrl=  10002127 FMM=F ISym2X=0 I1Cent= 0 IOpClX= 0 NMat=1 NMatS=1 NMatT=0.
 -------------------------------------------------------------------
 Center     Atomic                   Forces (Hartrees/Bohr)
 Number     Number              X              Y              Z
 -------------------------------------------------------------------
      1       17          -0.020387914   -0.000646286    0.000000239
      2        6           0.008216563    0.001783402   -0.000000564
      3        1           0.000188605   -0.000201444    0.000484003
      4        1           0.000188564   -0.000201505   -0.000484076
      5        1           0.000821459   -0.000259773    0.000000020
      6        8           0.010320471   -0.000372337    0.000000360
      7        1           0.000652252   -0.000102057    0.000000019
 -------------------------------------------------------------------
 Cartesian Forces:  Max     0.020387914 RMS     0.005323921
 IRC-IRC-IRC-IRC-IRC-IRC-IRC-IRC-IRC-IRC-IRC-IRC-IRC-IRC-IRC-IRC-IRC-IRC
 Error in corrector energy =          -0.0000219136
 Magnitude of corrector gradient =     0.0013304027
 Magnitude of analytic gradient =      0.0243972733
 Magnitude of difference =             0.0245957253
 Angle between gradients (degrees)=   97.0369
 Pt  1 Step number   4 out of a maximum of  20
 Modified Bulirsch-Stoer Extrapolation Cycles:
    EPS =    0.000000333333333
 Maximum DWI energy   std dev =  0.000006676 at pt    34
 Maximum DWI gradient std dev =  1.829868270 at pt     1
 WARNING: Bulirsch-Stoer Method is not Converging
 CORRECTOR INTEGRATION CONVERGENCE:
   Recorrection delta-x convergence threshold:    0.001826
   Delta-x Convergence NOT Met
 IRC-IRC-IRC-IRC-IRC-IRC-IRC-IRC-IRC-IRC-IRC-IRC-IRC-IRC-IRC-IRC-IRC-IRC
                          Input orientation:                          
 ---------------------------------------------------------------------
 Center     Atomic      Atomic             Coordinates (Angstroms)
 Number     Number       Type             X           Y           Z
 ---------------------------------------------------------------------
      1         17           0       -1.684960   -0.016626   -0.000359
      2          6           0        1.106925    0.003255    0.000620
      3          1           0        0.711037   -0.507441    0.889745
      4          1           0        0.710492   -0.505193   -0.889516
      5          1           0        0.711415    1.023425    0.001991
      6          8           0        2.540245    0.085692    0.000265
      7          1           0        2.835218   -0.832657   -0.001386
 ---------------------------------------------------------------------
                    Distance matrix (angstroms):
                    1          2          3          4          5
     1  Cl   0.000000
     2  C    2.791956   0.000000
     3  H    2.602688   1.099127   0.000000
     4  H    2.601440   1.099100   1.779263   0.000000
     5  H    2.612340   1.094156   1.769649   1.769594   0.000000
     6  O    4.226443   1.435689   2.118722   2.118691   2.055229
     7  H    4.593247   1.919831   2.326376   2.326041   2.820566
                    6          7
     6  O    0.000000
     7  H    0.964561   0.000000
 Symmetry turned off by external request.
 Stoichiometry    CH4ClO(1-)
 Framework group  C1[X(CH4ClO)]
 Deg. of freedom    15
 Full point group                 C1      NOp   1
 Rotational constants (GHZ):    127.1934780      2.2122949      2.2047403
 Standard basis: CC-pVDZ (5D, 7F)
    66 basis functions,   165 primitive gaussians,    69 cartesian basis functions
    18 alpha electrons       18 beta electrons
       nuclear repulsion energy        88.6859269949 Hartrees.
 NAtoms=    7 NActive=    7 NUniq=    7 SFac= 1.00D+00 NAtFMM=   60 NAOKFM=F Big=F
 Integral buffers will be    131072 words long.
 Raffenetti 1 integral format.
 Two-electron integral symmetry is turned off.
 One-electron integrals computed using PRISM.
 NBasis=    66 RedAO= T EigKep=  1.54D-02  NBF=    66
 NBsUse=    66 1.00D-06 EigRej= -1.00D+00 NBFU=    66
 Initial guess from the checkpoint file:  "/localscratch/rjackson.12297310.0/Gau-1345.chk"
 B after Tr=     0.000016   -0.000003    0.000033
         Rot=    1.000000   -0.000708    0.000074    0.000000 Ang=  -0.08 deg.
 ExpMin= 1.22D-01 ExpMax= 1.28D+05 ExpMxC= 1.24D+03 IAcc=3 IRadAn=         5 AccDes= 0.00D+00
 Harris functional with IExCor=  205 and IRadAn=       5 diagonalized for initial guess.
 HarFok:  IExCor=  205 AccDes= 0.00D+00 IRadAn=         5 IDoV= 1 UseB2=F ITyADJ=14
 ICtDFT=  3500011 ScaDFX=  1.000000  1.000000  1.000000  1.000000
 FoFCou: FMM=F IPFlag=           0 FMFlag=      100000 FMFlg1=           0
         NFxFlg=           0 DoJE=T BraDBF=F KetDBF=T FulRan=T
         wScrn=  0.000000 ICntrl=     500 IOpCl=  0 I1Cent=   200000004 NGrid=           0
         NMat0=    1 NMatS0=      1 NMatT0=    0 NMatD0=    1 NMtDS0=    0 NMtDT0=    0
 Symmetry not used in FoFCou.
 Keep R1 ints in memory in canonical form, NReq=3411288.
 Requested convergence on RMS density matrix=1.00D-08 within 256 cycles.
 Requested convergence on MAX density matrix=1.00D-06.
 Requested convergence on             energy=1.00D-06.
 No special actions if energy rises.
 SCF Done:  E(RHF) =  -574.588934864     A.U. after    7 cycles
            NFock=  7  Conv=0.82D-08     -V/T= 2.0000
 ExpMin= 1.22D-01 ExpMax= 1.28D+05 ExpMxC= 1.24D+03 IAcc=3 IRadAn=         7 AccDes= 0.00D+00
 HarFok:  IExCor=  205 AccDes= 0.00D+00 IRadAn=         7 IDoV=-2 UseB2=F ITyADJ=14
 ICtDFT= 12500011 ScaDFX=  1.000000  1.000000  1.000000  1.000000
 Range of M.O.s used for correlation:     8    66
 NBasis=    66 NAE=    18 NBE=    18 NFC=     7 NFV=     0
 NROrb=     59 NOA=    11 NOB=    11 NVA=    48 NVB=    48
 Fully direct method using O(ONN) memory.
 JobTyp=1 Pass  1:  I=   8 to  18 NPSUse=  1 ParTrn=F ParDer=F DoDerP=T.
 Spin components of T(2) and E(2):
     alpha-alpha T2 =       0.1848390665D-01 E2=     -0.5961484134D-01
     alpha-beta  T2 =       0.1102226053D+00 E2=     -0.3603861274D+00
     beta-beta   T2 =       0.1848390665D-01 E2=     -0.5961484134D-01
 ANorm=    0.1071069754D+01
 E2 =    -0.4796158101D+00 EUMP2 =    -0.57506855067450D+03
          IDoAtm=1111111
          Differentiating once with respect to electric field.
                with respect to dipole field.
          Differentiating once with respect to nuclear coordinates.
 Keep R1 ints in memory in canonical form, NReq=3353298.
          There are     1 degrees of freedom in the 1st order CPHF.  IDoFFX=0 NUNeed=     1.
 LinEq1:  Iter=  0 NonCon=     1 RMS=3.70D-03 Max=3.43D-02 NDo=     1
 AX will form     1 AO Fock derivatives at one time.
 LinEq1:  Iter=  1 NonCon=     1 RMS=8.38D-04 Max=6.54D-03 NDo=     1
 LinEq1:  Iter=  2 NonCon=     1 RMS=1.97D-04 Max=1.30D-03 NDo=     1
 LinEq1:  Iter=  3 NonCon=     1 RMS=7.13D-05 Max=6.86D-04 NDo=     1
 LinEq1:  Iter=  4 NonCon=     1 RMS=1.85D-05 Max=1.55D-04 NDo=     1
 LinEq1:  Iter=  5 NonCon=     1 RMS=4.18D-06 Max=4.61D-05 NDo=     1
 LinEq1:  Iter=  6 NonCon=     1 RMS=8.91D-07 Max=9.19D-06 NDo=     1
 LinEq1:  Iter=  7 NonCon=     1 RMS=1.59D-07 Max=1.20D-06 NDo=     1
 LinEq1:  Iter=  8 NonCon=     1 RMS=2.93D-08 Max=2.09D-07 NDo=     1
 LinEq1:  Iter=  9 NonCon=     1 RMS=4.21D-09 Max=3.94D-08 NDo=     1
 LinEq1:  Iter= 10 NonCon=     1 RMS=8.58D-10 Max=9.84D-09 NDo=     1
 LinEq1:  Iter= 11 NonCon=     1 RMS=1.65D-10 Max=1.43D-09 NDo=     1
 LinEq1:  Iter= 12 NonCon=     0 RMS=3.03D-11 Max=2.52D-10 NDo=     1
 Linear equations converged to 1.000D-10 1.000D-09 after    12 iterations.
 End of Minotr F.D. properties file   721 does not exist.
 End of Minotr F.D. properties file   722 does not exist.
 End of Minotr F.D. properties file   788 does not exist.
 Symmetrizing basis deriv contribution to polar:
 IMax=3 JMax=2 DiffMx= 0.00D+00
 Calling FoFJK, ICntrl=  10002127 FMM=F ISym2X=0 I1Cent= 0 IOpClX= 0 NMat=1 NMatS=1 NMatT=0.
 -------------------------------------------------------------------
 Center     Atomic                   Forces (Hartrees/Bohr)
 Number     Number              X              Y              Z
 -------------------------------------------------------------------
      1       17          -0.020367727   -0.000644809   -0.000001843
      2        6           0.008158017    0.001640258   -0.000003394
      3        1           0.000223995   -0.000158743    0.000405928
      4        1           0.000224663   -0.000157943   -0.000407290
      5        1           0.000799527   -0.000205673    0.000000126
      6        8           0.010316182   -0.000384973    0.000006046
      7        1           0.000645342   -0.000088119    0.000000427
 -------------------------------------------------------------------
 Cartesian Forces:  Max     0.020367727 RMS     0.005312442
 IRC-IRC-IRC-IRC-IRC-IRC-IRC-IRC-IRC-IRC-IRC-IRC-IRC-IRC-IRC-IRC-IRC-IRC
 Error in corrector energy =          -0.0000015196
 Magnitude of corrector gradient =     0.0000332951
 Magnitude of analytic gradient =      0.0243446683
 Magnitude of difference =             0.0243477298
 Angle between gradients (degrees)=   95.2369
 Pt  1 Step number   5 out of a maximum of  20
 Modified Bulirsch-Stoer Extrapolation Cycles:
    EPS =    0.000000333333333
 Maximum DWI energy   std dev =  0.000114519 at pt    48
 Maximum DWI gradient std dev =  2.077497063 at pt     1
 CORRECTOR INTEGRATION CONVERGENCE:
   Recorrection delta-x convergence threshold:    0.001826
   Delta-x Convergence NOT Met
 IRC-IRC-IRC-IRC-IRC-IRC-IRC-IRC-IRC-IRC-IRC-IRC-IRC-IRC-IRC-IRC-IRC-IRC
                          Input orientation:                          
 ---------------------------------------------------------------------
 Center     Atomic      Atomic             Coordinates (Angstroms)
 Number     Number       Type             X           Y           Z
 ---------------------------------------------------------------------
      1         17           0       -1.686396   -0.016675   -0.001228
      2          6           0        1.108507    0.003456    0.002682
      3          1           0        0.713498   -0.509298    0.891277
      4          1           0        0.710368   -0.502866   -0.888040
      5          1           0        0.713095    1.023620    0.006895
      6          8           0        2.541853    0.085616    0.000374
      7          1           0        2.836709   -0.832777   -0.005467
 ---------------------------------------------------------------------
                    Distance matrix (angstroms):
                    1          2          3          4          5
     1  Cl   0.000000
     2  C    2.794978   0.000000
     3  H    2.607438   1.099340   0.000000
     4  H    2.601402   1.099210   1.779332   0.000000
     5  H    2.615308   1.094122   1.769737   1.769485   0.000000
     6  O    4.229487   1.435702   2.119084   2.118946   2.055299
     7  H    4.596141   1.919905   2.327405   2.325748   2.820656
                    6          7
     6  O    0.000000
     7  H    0.964582   0.000000
 Symmetry turned off by external request.
 Stoichiometry    CH4ClO(1-)
 Framework group  C1[X(CH4ClO)]
 Deg. of freedom    15
 Full point group                 C1      NOp   1
 Rotational constants (GHZ):    127.1871566      2.2088456      2.2013171
 Standard basis: CC-pVDZ (5D, 7F)
    66 basis functions,   165 primitive gaussians,    69 cartesian basis functions
    18 alpha electrons       18 beta electrons
       nuclear repulsion energy        88.6395689922 Hartrees.
 NAtoms=    7 NActive=    7 NUniq=    7 SFac= 1.00D+00 NAtFMM=   60 NAOKFM=F Big=F
 Integral buffers will be    131072 words long.
 Raffenetti 1 integral format.
 Two-electron integral symmetry is turned off.
 One-electron integrals computed using PRISM.
 NBasis=    66 RedAO= T EigKep=  1.54D-02  NBF=    66
 NBsUse=    66 1.00D-06 EigRej= -1.00D+00 NBFU=    66
 Initial guess from the checkpoint file:  "/localscratch/rjackson.12297310.0/Gau-1345.chk"
 B after Tr=     0.000186    0.000015    0.000136
         Rot=    0.999999   -0.001415    0.000138   -0.000002 Ang=  -0.16 deg.
 ExpMin= 1.22D-01 ExpMax= 1.28D+05 ExpMxC= 1.24D+03 IAcc=3 IRadAn=         5 AccDes= 0.00D+00
 Harris functional with IExCor=  205 and IRadAn=       5 diagonalized for initial guess.
 HarFok:  IExCor=  205 AccDes= 0.00D+00 IRadAn=         5 IDoV= 1 UseB2=F ITyADJ=14
 ICtDFT=  3500011 ScaDFX=  1.000000  1.000000  1.000000  1.000000
 FoFCou: FMM=F IPFlag=           0 FMFlag=      100000 FMFlg1=           0
         NFxFlg=           0 DoJE=T BraDBF=F KetDBF=T FulRan=T
         wScrn=  0.000000 ICntrl=     500 IOpCl=  0 I1Cent=   200000004 NGrid=           0
         NMat0=    1 NMatS0=      1 NMatT0=    0 NMatD0=    1 NMtDS0=    0 NMtDT0=    0
 Symmetry not used in FoFCou.
 Keep R1 ints in memory in canonical form, NReq=3411288.
 Requested convergence on RMS density matrix=1.00D-08 within 256 cycles.
 Requested convergence on MAX density matrix=1.00D-06.
 Requested convergence on             energy=1.00D-06.
 No special actions if energy rises.
 SCF Done:  E(RHF) =  -574.589072365     A.U. after    8 cycles
            NFock=  8  Conv=0.72D-08     -V/T= 2.0000
 ExpMin= 1.22D-01 ExpMax= 1.28D+05 ExpMxC= 1.24D+03 IAcc=3 IRadAn=         7 AccDes= 0.00D+00
 HarFok:  IExCor=  205 AccDes= 0.00D+00 IRadAn=         7 IDoV=-2 UseB2=F ITyADJ=14
 ICtDFT= 12500011 ScaDFX=  1.000000  1.000000  1.000000  1.000000
 Range of M.O.s used for correlation:     8    66
 NBasis=    66 NAE=    18 NBE=    18 NFC=     7 NFV=     0
 NROrb=     59 NOA=    11 NOB=    11 NVA=    48 NVB=    48
 Fully direct method using O(ONN) memory.
 JobTyp=1 Pass  1:  I=   8 to  18 NPSUse=  1 ParTrn=F ParDer=F DoDerP=T.
 Spin components of T(2) and E(2):
     alpha-alpha T2 =       0.1848196762D-01 E2=     -0.5960897474D-01
     alpha-beta  T2 =       0.1102224514D+00 E2=     -0.3603765633D+00
     beta-beta   T2 =       0.1848196762D-01 E2=     -0.5960897474D-01
 ANorm=    0.1071067872D+01
 E2 =    -0.4795945128D+00 EUMP2 =    -0.57506866687822D+03
          IDoAtm=1111111
          Differentiating once with respect to electric field.
                with respect to dipole field.
          Differentiating once with respect to nuclear coordinates.
 Keep R1 ints in memory in canonical form, NReq=3353260.
          There are     1 degrees of freedom in the 1st order CPHF.  IDoFFX=0 NUNeed=     1.
 LinEq1:  Iter=  0 NonCon=     1 RMS=3.70D-03 Max=3.43D-02 NDo=     1
 AX will form     1 AO Fock derivatives at one time.
 LinEq1:  Iter=  1 NonCon=     1 RMS=8.37D-04 Max=6.42D-03 NDo=     1
 LinEq1:  Iter=  2 NonCon=     1 RMS=1.97D-04 Max=1.30D-03 NDo=     1
 LinEq1:  Iter=  3 NonCon=     1 RMS=7.13D-05 Max=6.86D-04 NDo=     1
 LinEq1:  Iter=  4 NonCon=     1 RMS=1.85D-05 Max=1.55D-04 NDo=     1
 LinEq1:  Iter=  5 NonCon=     1 RMS=4.18D-06 Max=4.60D-05 NDo=     1
 LinEq1:  Iter=  6 NonCon=     1 RMS=8.91D-07 Max=9.19D-06 NDo=     1
 LinEq1:  Iter=  7 NonCon=     1 RMS=1.59D-07 Max=1.20D-06 NDo=     1
 LinEq1:  Iter=  8 NonCon=     1 RMS=2.94D-08 Max=2.09D-07 NDo=     1
 LinEq1:  Iter=  9 NonCon=     1 RMS=4.21D-09 Max=3.94D-08 NDo=     1
 LinEq1:  Iter= 10 NonCon=     1 RMS=8.60D-10 Max=9.80D-09 NDo=     1
 LinEq1:  Iter= 11 NonCon=     1 RMS=1.65D-10 Max=1.40D-09 NDo=     1
 LinEq1:  Iter= 12 NonCon=     0 RMS=3.05D-11 Max=2.56D-10 NDo=     1
 Linear equations converged to 1.000D-10 1.000D-09 after    12 iterations.
 End of Minotr F.D. properties file   721 does not exist.
 End of Minotr F.D. properties file   722 does not exist.
 End of Minotr F.D. properties file   788 does not exist.
 Symmetrizing basis deriv contribution to polar:
 IMax=3 JMax=2 DiffMx= 0.00D+00
 Calling FoFJK, ICntrl=  10002127 FMM=F ISym2X=0 I1Cent= 0 IOpClX= 0 NMat=1 NMatS=1 NMatT=0.
 -------------------------------------------------------------------
 Center     Atomic                   Forces (Hartrees/Bohr)
 Number     Number              X              Y              Z
 -------------------------------------------------------------------
      1       17          -0.020141638   -0.000640436   -0.000001663
      2        6           0.007993367    0.001513186   -0.000020157
      3        1           0.000260121   -0.000118359    0.000335440
      4        1           0.000263857   -0.000115180   -0.000341592
      5        1           0.000774406   -0.000162510   -0.000000236
      6        8           0.010221833   -0.000407516    0.000025665
      7        1           0.000628054   -0.000069184    0.000002543
 -------------------------------------------------------------------
 Cartesian Forces:  Max     0.020141638 RMS     0.005247909
 IRC-IRC-IRC-IRC-IRC-IRC-IRC-IRC-IRC-IRC-IRC-IRC-IRC-IRC-IRC-IRC-IRC-IRC
 Error in corrector energy =           0.0000963607
 Magnitude of corrector gradient =     0.0007270942
 Magnitude of analytic gradient =      0.0240489406
 Magnitude of difference =             0.0239398203
 Angle between gradients (degrees)=   80.5113
 Pt  1 Step number   6 out of a maximum of  20
 Modified Bulirsch-Stoer Extrapolation Cycles:
    EPS =    0.000000333333333
 Maximum DWI energy   std dev =  0.000098702 at pt    48
 Maximum DWI gradient std dev =  2.088290281 at pt     1
 CORRECTOR INTEGRATION CONVERGENCE:
   Recorrection delta-x convergence threshold:    0.001826
   Delta-x Convergence NOT Met
 IRC-IRC-IRC-IRC-IRC-IRC-IRC-IRC-IRC-IRC-IRC-IRC-IRC-IRC-IRC-IRC-IRC-IRC
                          Input orientation:                          
 ---------------------------------------------------------------------
 Center     Atomic      Atomic             Coordinates (Angstroms)
 Number     Number       Type             X           Y           Z
 ---------------------------------------------------------------------
      1         17           0       -1.687043   -0.016695   -0.001202
      2          6           0        1.109250    0.003564    0.003590
      3          1           0        0.714914   -0.508190    0.893540
      4          1           0        0.709675   -0.504049   -0.886156
      5          1           0        0.713909    1.023561    0.006892
      6          8           0        2.542570    0.085588   -0.000552
      7          1           0        2.837404   -0.832827   -0.006595
 ---------------------------------------------------------------------
                    Distance matrix (angstroms):
                    1          2          3          4          5
     1  Cl   0.000000
     2  C    2.796370   0.000000
     3  H    2.609891   1.099729   0.000000
     4  H    2.600945   1.099536   1.779709   0.000000
     5  H    2.616633   1.093937   1.769860   1.769504   0.000000
     6  O    4.230849   1.435671   2.119504   2.119309   2.055200
     7  H    4.597469   1.919941   2.328217   2.325716   2.820565
                    6          7
     6  O    0.000000
     7  H    0.964598   0.000000
 Symmetry turned off by external request.
 Stoichiometry    CH4ClO(1-)
 Framework group  C1[X(CH4ClO)]
 Deg. of freedom    15
 Full point group                 C1      NOp   1
 Rotational constants (GHZ):    127.1629513      2.2072885      2.1997788
 Standard basis: CC-pVDZ (5D, 7F)
    66 basis functions,   165 primitive gaussians,    69 cartesian basis functions
    18 alpha electrons       18 beta electrons
       nuclear repulsion energy        88.6176186178 Hartrees.
 NAtoms=    7 NActive=    7 NUniq=    7 SFac= 1.00D+00 NAtFMM=   60 NAOKFM=F Big=F
 Integral buffers will be    131072 words long.
 Raffenetti 1 integral format.
 Two-electron integral symmetry is turned off.
 One-electron integrals computed using PRISM.
 NBasis=    66 RedAO= T EigKep=  1.54D-02  NBF=    66
 NBsUse=    66 1.00D-06 EigRej= -1.00D+00 NBFU=    66
 Initial guess from the checkpoint file:  "/localscratch/rjackson.12297310.0/Gau-1345.chk"
 B after Tr=     0.000076   -0.000004    0.000083
         Rot=    1.000000    0.000490   -0.000067    0.000001 Ang=   0.06 deg.
 ExpMin= 1.22D-01 ExpMax= 1.28D+05 ExpMxC= 1.24D+03 IAcc=3 IRadAn=         5 AccDes= 0.00D+00
 Harris functional with IExCor=  205 and IRadAn=       5 diagonalized for initial guess.
 HarFok:  IExCor=  205 AccDes= 0.00D+00 IRadAn=         5 IDoV= 1 UseB2=F ITyADJ=14
 ICtDFT=  3500011 ScaDFX=  1.000000  1.000000  1.000000  1.000000
 FoFCou: FMM=F IPFlag=           0 FMFlag=      100000 FMFlg1=           0
         NFxFlg=           0 DoJE=T BraDBF=F KetDBF=T FulRan=T
         wScrn=  0.000000 ICntrl=     500 IOpCl=  0 I1Cent=   200000004 NGrid=           0
         NMat0=    1 NMatS0=      1 NMatT0=    0 NMatD0=    1 NMtDS0=    0 NMtDT0=    0
 Symmetry not used in FoFCou.
 Keep R1 ints in memory in canonical form, NReq=3411288.
 Requested convergence on RMS density matrix=1.00D-08 within 256 cycles.
 Requested convergence on MAX density matrix=1.00D-06.
 Requested convergence on             energy=1.00D-06.
 No special actions if energy rises.
 SCF Done:  E(RHF) =  -574.589126779     A.U. after    8 cycles
            NFock=  8  Conv=0.53D-08     -V/T= 2.0000
 ExpMin= 1.22D-01 ExpMax= 1.28D+05 ExpMxC= 1.24D+03 IAcc=3 IRadAn=         7 AccDes= 0.00D+00
 HarFok:  IExCor=  205 AccDes= 0.00D+00 IRadAn=         7 IDoV=-2 UseB2=F ITyADJ=14
 ICtDFT= 12500011 ScaDFX=  1.000000  1.000000  1.000000  1.000000
 Range of M.O.s used for correlation:     8    66
 NBasis=    66 NAE=    18 NBE=    18 NFC=     7 NFV=     0
 NROrb=     59 NOA=    11 NOB=    11 NVA=    48 NVB=    48
 Fully direct method using O(ONN) memory.
 JobTyp=1 Pass  1:  I=   8 to  18 NPSUse=  1 ParTrn=F ParDer=F DoDerP=T.
 Spin components of T(2) and E(2):
     alpha-alpha T2 =       0.1848171702D-01 E2=     -0.5960702330D-01
     alpha-beta  T2 =       0.1102280807D+00 E2=     -0.3603782990D+00
     beta-beta   T2 =       0.1848171702D-01 E2=     -0.5960702330D-01
 ANorm=    0.1071070266D+01
 E2 =    -0.4795923456D+00 EUMP2 =    -0.57506871912504D+03
          IDoAtm=1111111
          Differentiating once with respect to electric field.
                with respect to dipole field.
          Differentiating once with respect to nuclear coordinates.
 Keep R1 ints in memory in canonical form, NReq=3353241.
          There are     1 degrees of freedom in the 1st order CPHF.  IDoFFX=0 NUNeed=     1.
 LinEq1:  Iter=  0 NonCon=     1 RMS=3.70D-03 Max=3.42D-02 NDo=     1
 AX will form     1 AO Fock derivatives at one time.
 LinEq1:  Iter=  1 NonCon=     1 RMS=8.38D-04 Max=6.31D-03 NDo=     1
 LinEq1:  Iter=  2 NonCon=     1 RMS=1.97D-04 Max=1.30D-03 NDo=     1
 LinEq1:  Iter=  3 NonCon=     1 RMS=7.13D-05 Max=6.86D-04 NDo=     1
 LinEq1:  Iter=  4 NonCon=     1 RMS=1.85D-05 Max=1.55D-04 NDo=     1
 LinEq1:  Iter=  5 NonCon=     1 RMS=4.18D-06 Max=4.59D-05 NDo=     1
 LinEq1:  Iter=  6 NonCon=     1 RMS=8.91D-07 Max=9.19D-06 NDo=     1
 LinEq1:  Iter=  7 NonCon=     1 RMS=1.60D-07 Max=1.20D-06 NDo=     1
 LinEq1:  Iter=  8 NonCon=     1 RMS=2.94D-08 Max=2.09D-07 NDo=     1
 LinEq1:  Iter=  9 NonCon=     1 RMS=4.22D-09 Max=3.94D-08 NDo=     1
 LinEq1:  Iter= 10 NonCon=     1 RMS=8.62D-10 Max=9.75D-09 NDo=     1
 LinEq1:  Iter= 11 NonCon=     1 RMS=1.66D-10 Max=1.37D-09 NDo=     1
 LinEq1:  Iter= 12 NonCon=     0 RMS=3.09D-11 Max=2.60D-10 NDo=     1
 Linear equations converged to 1.000D-10 1.000D-09 after    12 iterations.
 End of Minotr F.D. properties file   721 does not exist.
 End of Minotr F.D. properties file   722 does not exist.
 End of Minotr F.D. properties file   788 does not exist.
 Symmetrizing basis deriv contribution to polar:
 IMax=3 JMax=2 DiffMx= 0.00D+00
 Calling FoFJK, ICntrl=  10002127 FMM=F ISym2X=0 I1Cent= 0 IOpClX= 0 NMat=1 NMatS=1 NMatT=0.
 -------------------------------------------------------------------
 Center     Atomic                   Forces (Hartrees/Bohr)
 Number     Number              X              Y              Z
 -------------------------------------------------------------------
      1       17          -0.020043461   -0.000636231    0.000006171
      2        6           0.007814472    0.001170952   -0.000034406
      3        1           0.000351316   -0.000014249    0.000153547
      4        1           0.000357853   -0.000010450   -0.000162695
      5        1           0.000720039   -0.000031760   -0.000001189
      6        8           0.010184856   -0.000424682    0.000034243
      7        1           0.000614926   -0.000053581    0.000004330
 -------------------------------------------------------------------
 Cartesian Forces:  Max     0.020043461 RMS     0.005208503
 IRC-IRC-IRC-IRC-IRC-IRC-IRC-IRC-IRC-IRC-IRC-IRC-IRC-IRC-IRC-IRC-IRC-IRC
 Error in corrector energy =           0.0000318468
 Magnitude of corrector gradient =     0.0135191355
 Magnitude of analytic gradient =      0.0238683598
 Magnitude of difference =             0.0144542763
 Angle between gradients (degrees)=   32.6239
 Pt  1 Step number   7 out of a maximum of  20
 Modified Bulirsch-Stoer Extrapolation Cycles:
    EPS =    0.000000333333333
 Maximum DWI energy   std dev =  0.000074749 at pt    31
 Maximum DWI gradient std dev =  2.102109615 at pt     2
 CORRECTOR INTEGRATION CONVERGENCE:
   Recorrection delta-x convergence threshold:    0.001826
   Delta-x Convergence NOT Met
 IRC-IRC-IRC-IRC-IRC-IRC-IRC-IRC-IRC-IRC-IRC-IRC-IRC-IRC-IRC-IRC-IRC-IRC
                          Input orientation:                          
 ---------------------------------------------------------------------
 Center     Atomic      Atomic             Coordinates (Angstroms)
 Number     Number       Type             X           Y           Z
 ---------------------------------------------------------------------
      1         17           0       -1.687240   -0.016699   -0.001087
      2          6           0        1.109482    0.003597    0.004065
      3          1           0        0.715666   -0.507110    0.895061
      4          1           0        0.709080   -0.505203   -0.884799
      5          1           0        0.714165    1.023522    0.006350
      6          8           0        2.542784    0.085581   -0.001280
      7          1           0        2.837619   -0.832840   -0.007018
 ---------------------------------------------------------------------
                    Distance matrix (angstroms):
                    1          2          3          4          5
     1  Cl   0.000000
     2  C    2.796800   0.000000
     3  H    2.611041   1.099903   0.000000
     4  H    2.600371   1.099672   1.779873   0.000000
     5  H    2.617032   1.093859   1.769927   1.769512   0.000000
     6  O    4.231260   1.435654   2.119686   2.119457   2.055149
     7  H    4.597876   1.919950   2.328633   2.325623   2.820517
                    6          7
     6  O    0.000000
     7  H    0.964603   0.000000
 Symmetry turned off by external request.
 Stoichiometry    CH4ClO(1-)
 Framework group  C1[X(CH4ClO)]
 Deg. of freedom    15
 Full point group                 C1      NOp   1
 Rotational constants (GHZ):    127.1507193      2.2068161      2.1993136
 Standard basis: CC-pVDZ (5D, 7F)
    66 basis functions,   165 primitive gaussians,    69 cartesian basis functions
    18 alpha electrons       18 beta electrons
       nuclear repulsion energy        88.6107912592 Hartrees.
 NAtoms=    7 NActive=    7 NUniq=    7 SFac= 1.00D+00 NAtFMM=   60 NAOKFM=F Big=F
 Integral buffers will be    131072 words long.
 Raffenetti 1 integral format.
 Two-electron integral symmetry is turned off.
 One-electron integrals computed using PRISM.
 NBasis=    66 RedAO= T EigKep=  1.54D-02  NBF=    66
 NBsUse=    66 1.00D-06 EigRej= -1.00D+00 NBFU=    66
 Initial guess from the checkpoint file:  "/localscratch/rjackson.12297310.0/Gau-1345.chk"
 B after Tr=     0.000021   -0.000003    0.000049
         Rot=    1.000000    0.000535   -0.000067    0.000001 Ang=   0.06 deg.
 ExpMin= 1.22D-01 ExpMax= 1.28D+05 ExpMxC= 1.24D+03 IAcc=3 IRadAn=         5 AccDes= 0.00D+00
 Harris functional with IExCor=  205 and IRadAn=       5 diagonalized for initial guess.
 HarFok:  IExCor=  205 AccDes= 0.00D+00 IRadAn=         5 IDoV= 1 UseB2=F ITyADJ=14
 ICtDFT=  3500011 ScaDFX=  1.000000  1.000000  1.000000  1.000000
 FoFCou: FMM=F IPFlag=           0 FMFlag=      100000 FMFlg1=           0
         NFxFlg=           0 DoJE=T BraDBF=F KetDBF=T FulRan=T
         wScrn=  0.000000 ICntrl=     500 IOpCl=  0 I1Cent=   200000004 NGrid=           0
         NMat0=    1 NMatS0=      1 NMatT0=    0 NMatD0=    1 NMtDS0=    0 NMtDT0=    0
 Symmetry not used in FoFCou.
 Keep R1 ints in memory in canonical form, NReq=3411288.
 Requested convergence on RMS density matrix=1.00D-08 within 256 cycles.
 Requested convergence on MAX density matrix=1.00D-06.
 Requested convergence on             energy=1.00D-06.
 No special actions if energy rises.
 SCF Done:  E(RHF) =  -574.589141752     A.U. after    8 cycles
[...]
 LinEq1:  Iter= 11 NonCon=     1 RMS=1.64D-10 Max=1.36D-09 NDo=     1
 LinEq1:  Iter= 12 NonCon=     0 RMS=3.08D-11 Max=2.86D-10 NDo=     1
 Linear equations converged to 1.000D-10 1.000D-09 after    12 iterations.
 End of Minotr F.D. properties file   721 does not exist.
 End of Minotr F.D. properties file   722 does not exist.
 End of Minotr F.D. properties file   788 does not exist.
 Symmetrizing basis deriv contribution to polar:
 IMax=3 JMax=2 DiffMx= 0.00D+00
 Calling FoFJK, ICntrl=  10002127 FMM=F ISym2X=0 I1Cent= 0 IOpClX= 0 NMat=1 NMatS=1 NMatT=0.
 -------------------------------------------------------------------
 Center     Atomic                   Forces (Hartrees/Bohr)
 Number     Number              X              Y              Z
 -------------------------------------------------------------------
      1       17          -0.000150674   -0.000166829    0.000000135
      2        6           0.000122341    0.000367486   -0.000002622
      3        1           0.000007692    0.000047628   -0.000012648
      4        1           0.000010188    0.000049108    0.000014815
      5        1           0.000065280   -0.000043231    0.000000115
      6        8           0.000003097   -0.000321367    0.000000002
      7        1          -0.000057924    0.000067204    0.000000204
 -------------------------------------------------------------------
 Cartesian Forces:  Max     0.000367486 RMS     0.000124033
 IRC-IRC-IRC-IRC-IRC-IRC-IRC-IRC-IRC-IRC-IRC-IRC-IRC-IRC-IRC-IRC-IRC-IRC
 Pt 62 Step number   1 out of a maximum of  20
 Modified Bulirsch-Stoer Extrapolation Cycles:
    EPS =    0.000000333333333
 Maximum DWI energy   std dev =  0.000000023 at pt    63
 Maximum DWI gradient std dev =  0.188791875 at pt   153
 CORRECTOR INTEGRATION CONVERGENCE:
   Recorrection delta-x convergence threshold:    0.001826
   Delta-x Convergence Met
 Point Number:  62          Path Number:   1
   CHANGE IN THE REACTION COORDINATE =    0.07734
   NET REACTION COORDINATE UP TO THIS POINT =    4.77617
  # OF POINTS ALONG THE PATH =  62
  # OF STEPS =   1

 Calculating another point on the path.
 IRC-IRC-IRC-IRC-IRC-IRC-IRC-IRC-IRC-IRC-IRC-IRC-IRC-IRC-IRC-IRC-IRC-IRC
                          Input orientation:                          
 ---------------------------------------------------------------------
 Center     Atomic      Atomic             Coordinates (Angstroms)
 Number     Number       Type             X           Y           Z
 ---------------------------------------------------------------------
      1         17           0       -1.939742   -0.050521   -0.000617
      2          6           0        1.395983    0.180769    0.001772
      3          1           0        0.896042   -0.247371    0.885671
      4          1           0        0.894367   -0.240904   -0.884262
      5          1           0        1.209475    1.263678    0.005871
      6          8           0        2.821836   -0.010675   -0.000143
      7          1           0        2.936987   -0.968774   -0.004317
 ---------------------------------------------------------------------
                    Distance matrix (angstroms):
                    1          2          3          4          5
     1  Cl   0.000000
     2  C    3.343735   0.000000
     3  H    2.977571   1.102053   0.000000
     4  H    2.974768   1.102036   1.769946   0.000000
     5  H    3.412438   1.098860   1.776389   1.776344   0.000000
     6  O    4.761744   1.438649   2.132925   2.133028   2.055168
     7  H    4.962428   1.922545   2.340504   2.340170   2.822807
                    6          7
     6  O    0.000000
     7  H    0.965003   0.000000
 Symmetry turned off by external request.
 Stoichiometry    CH4ClO(1-)
 Framework group  C1[X(CH4ClO)]
 Deg. of freedom    15
 Full point group                 C1      NOp   1
 Rotational constants (GHZ):    108.0679148      1.7088339      1.7001004
 Standard basis: CC-pVDZ (5D, 7F)
    66 basis functions,   165 primitive gaussians,    69 cartesian basis functions
    18 alpha electrons       18 beta electrons
       nuclear repulsion energy        81.6603335732 Hartrees.
 NAtoms=    7 NActive=    7 NUniq=    7 SFac= 1.00D+00 NAtFMM=   60 NAOKFM=F Big=F
 Integral buffers will be    131072 words long.
 Raffenetti 1 integral format.
 Two-electron integral symmetry is turned off.
 One-electron integrals computed using PRISM.
 NBasis=    66 RedAO= T EigKep=  1.62D-02  NBF=    66
 NBsUse=    66 1.00D-06 EigRej= -1.00D+00 NBFU=    66
 Initial guess from the checkpoint file:  "/localscratch/rjackson.12297310.0/Gau-1345.chk"
 B after Tr=     0.000218    0.000899    0.000000
         Rot=    1.000000    0.000014    0.000000   -0.000006 Ang=   0.00 deg.
 ExpMin= 1.22D-01 ExpMax= 1.28D+05 ExpMxC= 1.24D+03 IAcc=3 IRadAn=         5 AccDes= 0.00D+00
 Harris functional with IExCor=  205 and IRadAn=       5 diagonalized for initial guess.
 HarFok:  IExCor=  205 AccDes= 0.00D+00 IRadAn=         5 IDoV= 1 UseB2=F ITyADJ=14
 ICtDFT=  3500011 ScaDFX=  1.000000  1.000000  1.000000  1.000000
 FoFCou: FMM=F IPFlag=           0 FMFlag=      100000 FMFlg1=           0
         NFxFlg=           0 DoJE=T BraDBF=F KetDBF=T FulRan=T
         wScrn=  0.000000 ICntrl=     500 IOpCl=  0 I1Cent=   200000004 NGrid=           0
         NMat0=    1 NMatS0=      1 NMatT0=    0 NMatD0=    1 NMtDS0=    0 NMtDT0=    0
 Symmetry not used in FoFCou.
 Keep R1 ints in memory in canonical form, NReq=3410285.
 Requested convergence on RMS density matrix=1.00D-08 within 256 cycles.
 Requested convergence on MAX density matrix=1.00D-06.
 Requested convergence on             energy=1.00D-06.
 No special actions if energy rises.
 SCF Done:  E(RHF) =  -574.600065711     A.U. after    9 cycles
            NFock=  9  Conv=0.23D-08     -V/T= 2.0002
 ExpMin= 1.22D-01 ExpMax= 1.28D+05 ExpMxC= 1.24D+03 IAcc=3 IRadAn=         7 AccDes= 0.00D+00
 HarFok:  IExCor=  205 AccDes= 0.00D+00 IRadAn=         7 IDoV=-2 UseB2=F ITyADJ=14
 ICtDFT= 12500011 ScaDFX=  1.000000  1.000000  1.000000  1.000000
 Range of M.O.s used for correlation:     8    66
 NBasis=    66 NAE=    18 NBE=    18 NFC=     7 NFV=     0
 NROrb=     59 NOA=    11 NOB=    11 NVA=    48 NVB=    48
 Fully direct method using O(ONN) memory.
 JobTyp=1 Pass  1:  I=   8 to  18 NPSUse=  1 ParTrn=F ParDer=F DoDerP=T.
 Spin components of T(2) and E(2):
     alpha-alpha T2 =       0.1817722191D-01 E2=     -0.5885298683D-01
     alpha-beta  T2 =       0.1096842512D+00 E2=     -0.3587194801D+00
     beta-beta   T2 =       0.1817722191D-01 E2=     -0.5885298683D-01
 ANorm=    0.1070531968D+01
 E2 =    -0.4764254537D+00 EUMP2 =    -0.57507649116488D+03
          IDoAtm=1111111
          Differentiating once with respect to electric field.
                with respect to dipole field.
          Differentiating once with respect to nuclear coordinates.
 Keep R1 ints in memory in canonical form, NReq=3351548.
          There are     1 degrees of freedom in the 1st order CPHF.  IDoFFX=0 NUNeed=     1.
 LinEq1:  Iter=  0 NonCon=     1 RMS=3.55D-03 Max=3.13D-02 NDo=     1
 AX will form     1 AO Fock derivatives at one time.
 LinEq1:  Iter=  1 NonCon=     1 RMS=8.28D-04 Max=6.64D-03 NDo=     1
 LinEq1:  Iter=  2 NonCon=     1 RMS=1.99D-04 Max=1.44D-03 NDo=     1
 LinEq1:  Iter=  3 NonCon=     1 RMS=7.46D-05 Max=6.79D-04 NDo=     1
 LinEq1:  Iter=  4 NonCon=     1 RMS=1.79D-05 Max=1.77D-04 NDo=     1
 LinEq1:  Iter=  5 NonCon=     1 RMS=4.10D-06 Max=3.86D-05 NDo=     1
 LinEq1:  Iter=  6 NonCon=     1 RMS=9.49D-07 Max=7.90D-06 NDo=     1
 LinEq1:  Iter=  7 NonCon=     1 RMS=1.73D-07 Max=1.38D-06 NDo=     1
 LinEq1:  Iter=  8 NonCon=     1 RMS=3.04D-08 Max=2.35D-07 NDo=     1
 LinEq1:  Iter=  9 NonCon=     1 RMS=4.85D-09 Max=4.23D-08 NDo=     1
 LinEq1:  Iter= 10 NonCon=     1 RMS=9.98D-10 Max=1.03D-08 NDo=     1
 LinEq1:  Iter= 11 NonCon=     1 RMS=1.64D-10 Max=1.37D-09 NDo=     1
 LinEq1:  Iter= 12 NonCon=     0 RMS=3.08D-11 Max=2.85D-10 NDo=     1
 Linear equations converged to 1.000D-10 1.000D-09 after    12 iterations.
 End of Minotr F.D. properties file   721 does not exist.
 End of Minotr F.D. properties file   722 does not exist.
 End of Minotr F.D. properties file   788 does not exist.
 Symmetrizing basis deriv contribution to polar:
 IMax=3 JMax=2 DiffMx= 0.00D+00
 Calling FoFJK, ICntrl=  10002127 FMM=F ISym2X=0 I1Cent= 0 IOpClX= 0 NMat=1 NMatS=1 NMatT=0.
 -------------------------------------------------------------------
 Center     Atomic                   Forces (Hartrees/Bohr)
 Number     Number              X              Y              Z
 -------------------------------------------------------------------
      1       17          -0.000130003   -0.000160818    0.000000061
      2        6           0.000115158    0.000358054   -0.000002857
      3        1           0.000007897    0.000045838   -0.000012631
      4        1           0.000010687    0.000047468    0.000015327
      5        1           0.000062815   -0.000047074    0.000000084
      6        8          -0.000008335   -0.000307559   -0.000000164
      7        1          -0.000058220    0.000064090    0.000000179
 -------------------------------------------------------------------
 Cartesian Forces:  Max     0.000358054 RMS     0.000119020
 IRC-IRC-IRC-IRC-IRC-IRC-IRC-IRC-IRC-IRC-IRC-IRC-IRC-IRC-IRC-IRC-IRC-IRC
 Pt 63 Step number   1 out of a maximum of  20
 Modified Bulirsch-Stoer Extrapolation Cycles:
    EPS =    0.000000333333333
 Maximum DWI energy   std dev =  0.000000022 at pt    63
 Maximum DWI gradient std dev =  0.188280941 at pt   153
 CORRECTOR INTEGRATION CONVERGENCE:
   Recorrection delta-x convergence threshold:    0.001826
   Delta-x Convergence Met
 Point Number:  63          Path Number:   1
   CHANGE IN THE REACTION COORDINATE =    0.07735
   NET REACTION COORDINATE UP TO THIS POINT =    4.85351
  # OF POINTS ALONG THE PATH =  63
  # OF STEPS =   1

 PES minimum detected on this side of the pathway.
    Magnitude of the gradient =      0.0001459
 Calculation of REVERSE path complete.
 Reaction path calculation complete.
 
 Energies reported relative to the TS energy of        -575.068552
 --------------------------------------------------------------------------
    Summary of reaction path following
 --------------------------------------------------------------------------
                        Energy    RxCoord
   1                   -0.00794  -4.85351
   2                   -0.00793  -4.77617
   3                   -0.00792  -4.69882
   4                   -0.00790  -4.62148
   5                   -0.00789  -4.54414
   6                   -0.00788  -4.46680
   7                   -0.00786  -4.38946
   8                   -0.00785  -4.31212
   9                   -0.00783  -4.23479
  10                   -0.00781  -4.15745
  11                   -0.00779  -4.08012
  12                   -0.00777  -4.00279
  13                   -0.00775  -3.92546
  14                   -0.00773  -3.84812
  15                   -0.00770  -3.77079
  16                   -0.00768  -3.69345
  17                   -0.00765  -3.61611
  18                   -0.00761  -3.53877
  19                   -0.00758  -3.46143
  20                   -0.00754  -3.38408
  21                   -0.00750  -3.30674
  22                   -0.00746  -3.22939
  23                   -0.00741  -3.15205
  24                   -0.00736  -3.07470
  25                   -0.00730  -2.99735
  26                   -0.00724  -2.92001
  27                   -0.00718  -2.84266
  28                   -0.00711  -2.76531
  29                   -0.00704  -2.68796
  30                   -0.00696  -2.61061
  31                   -0.00688  -2.53326
  32                   -0.00679  -2.45591
  33                   -0.00669  -2.37856
  34                   -0.00659  -2.30121
  35                   -0.00649  -2.22386
  36                   -0.00638  -2.14651
  37                   -0.00626  -2.06916
  38                   -0.00614  -1.99181
  39                   -0.00601  -1.91446
  40                   -0.00587  -1.83711
  41                   -0.00572  -1.75976
  42                   -0.00557  -1.68241
  43                   -0.00541  -1.60506
  44                   -0.00524  -1.52771
  45                   -0.00507  -1.45036
  46                   -0.00488  -1.37301
  47                   -0.00469  -1.29566
  48                   -0.00449  -1.21831
  49                   -0.00428  -1.14096
  50                   -0.00406  -1.06361
  51                   -0.00383  -0.98626
  52                   -0.00359  -0.90891
  53                   -0.00334  -0.83155
  54                   -0.00308  -0.75420
  55                   -0.00280  -0.67685
  56                   -0.00252  -0.59950
  57                   -0.00222  -0.52215
  58                   -0.00192  -0.44480
  59                   -0.00160  -0.36745
  60                   -0.00126  -0.29010
  61                   -0.00092  -0.21275
  62                   -0.00056  -0.13541
  63                   -0.00019  -0.05809
  64                    0.00000   0.00000
 --------------------------------------------------------------------------
 
 Total number of points:                   63
 Total number of gradient calculations:    74
 Total number of Hessian calculations:      1
 IRC-IRC-IRC-IRC-IRC-IRC-IRC-IRC-IRC-IRC-IRC-IRC-IRC-IRC-IRC-IRC-IRC-IRC
                          Input orientation:                          
 ---------------------------------------------------------------------
 Center     Atomic      Atomic             Coordinates (Angstroms)
 Number     Number       Type             X           Y           Z
 ---------------------------------------------------------------------
      1         17           0       -1.939742   -0.050521   -0.000617
      2          6           0        1.395983    0.180769    0.001772
      3          1           0        0.896042   -0.247371    0.885671
      4          1           0        0.894367   -0.240904   -0.884262
      5          1           0        1.209475    1.263678    0.005871
      6          8           0        2.821836   -0.010675   -0.000143
      7          1           0        2.936987   -0.968774   -0.004317
 ---------------------------------------------------------------------
                    Distance matrix (angstroms):
                    1          2          3          4          5
     1  Cl   0.000000
     2  C    3.343735   0.000000
     3  H    2.977571   1.102053   0.000000
     4  H    2.974768   1.102036   1.769946   0.000000
     5  H    3.412438   1.098860   1.776389   1.776344   0.000000
     6  O    4.761744   1.438649   2.132925   2.133028   2.055168
     7  H    4.962428   1.922545   2.340504   2.340170   2.822807
                    6          7
     6  O    0.000000
     7  H    0.965003   0.000000
 Symmetry turned off by external request.
 Stoichiometry    CH4ClO(1-)
 Framework group  C1[X(CH4ClO)]
 Deg. of freedom    15
 Full point group                 C1      NOp   1
 Rotational constants (GHZ):    108.0679148      1.7088339      1.7001004

 **********************************************************************

            Population analysis using the SCF density.

 **********************************************************************

 Alpha  occ. eigenvalues -- -104.47769 -20.41919 -11.12011 -10.19891  -7.66520
 Alpha  occ. eigenvalues --   -7.66512  -7.66510  -1.21173  -0.76353  -0.71178
 Alpha  occ. eigenvalues --   -0.53841  -0.45883  -0.43744  -0.35401  -0.30157
 Alpha  occ. eigenvalues --   -0.13182  -0.13153  -0.13149
 Alpha virt. eigenvalues --    0.31284   0.37328   0.42707   0.43538   0.52833
 Alpha virt. eigenvalues --    0.78231   0.78959   0.86942   0.94185   1.00582
 Alpha virt. eigenvalues --    1.03375   1.04812   1.07157   1.08835   1.09004
 Alpha virt. eigenvalues --    1.21235   1.27782   1.29237   1.29889   1.32511
 Alpha virt. eigenvalues --    1.32521   1.33005   1.33723   1.38535   1.45895
 Alpha virt. eigenvalues --    1.46992   1.57085   1.70930   1.79370   1.84055
 Alpha virt. eigenvalues --    2.03016   2.07804   2.09246   2.11209   2.18600
 Alpha virt. eigenvalues --    2.28093   2.46598   2.50573   2.56002   2.62925
 Alpha virt. eigenvalues --    2.89949   2.90184   2.92249   3.43977   3.50517
 Alpha virt. eigenvalues --    3.58014   3.71287   4.20837
          Condensed to atoms (all electrons):
               1          2          3          4          5          6
     1  Cl  17.938510  -0.011671   0.013744   0.013826   0.004646   0.000189
     2  C   -0.011671   4.394617   0.414606   0.414650   0.407164   0.281662
     3  H    0.013744   0.414606   0.625676  -0.031800  -0.026621  -0.026943
     4  H    0.013826   0.414650  -0.031800   0.625233  -0.026579  -0.026916
     5  H    0.004646   0.407164  -0.026621  -0.026579   0.632773  -0.022424
     6  O    0.000189   0.281662  -0.026943  -0.026916  -0.022424   7.871454
     7  H   -0.000035  -0.048418  -0.005036  -0.005045   0.007504   0.354182
               7
     1  Cl  -0.000035
     2  C   -0.048418
     3  H   -0.005036
     4  H   -0.005045
     5  H    0.007504
     6  O    0.354182
     7  H    0.550365
 Mulliken charges:
               1
     1  Cl  -0.959210
     2  C    0.147391
     3  H    0.036373
     4  H    0.036632
     5  H    0.023537
     6  O   -0.431205
     7  H    0.146482
 Sum of Mulliken charges =  -1.00000
 Mulliken charges with hydrogens summed into heavy atoms:
               1
     1  Cl  -0.959210
     2  C    0.243933
     6  O   -0.284723
 APT charges:
               1
     1  Cl  -0.941796
     2  C   -0.330245
     3  H    0.078707
     4  H    0.078183
     5  H    0.186588
     6  O   -0.415346
     7  H    0.343909
 Sum of APT charges =  -1.00000
 APT charges with hydrogens summed into heavy atoms:
               1
     1  Cl  -0.941796
     2  C    0.013233
     6  O   -0.071436
 Electronic spatial extent (au):  <R**2>=            637.5679
 Charge=             -1.0000 electrons
 Dipole moment (field-independent basis, Debye):
    X=              6.7124    Y=             -1.0900    Z=             -0.0023  Tot=              6.8003
 Quadrupole moment (field-independent basis, Debye-Ang):
   XX=            -54.8619   YY=            -26.7464   ZZ=            -28.9876
   XY=             -4.8332   XZ=             -0.0232   YZ=              0.0101
 Traceless Quadrupole moment (field-independent basis, Debye-Ang):
   XX=            -17.9966   YY=             10.1189   ZZ=              7.8777
   XY=             -4.8332   XZ=             -0.0232   YZ=              0.0101
 Octapole moment (field-independent basis, Debye-Ang**2):
  XXX=             13.4764  YYY=             -1.6504  ZZZ=             -0.0106  XYY=              8.8499
  XXY=            -13.1311  XXZ=             -0.0493  XZZ=              2.0510  YZZ=             -0.5721
  YYZ=             -0.0049  XYZ=              0.0301
 Hexadecapole moment (field-independent basis, Debye-Ang**3):
 XXXX=           -894.0018 YYYY=            -38.0689 ZZZZ=            -36.9809 XXXY=            -50.6571
 XXXZ=             -0.2957 YYYX=            -10.7199 YYYZ=              0.0020 ZZZX=             -0.0940
 ZZZY=             -0.0189 XXYY=           -114.8067 XXZZ=           -133.2608 YYZZ=            -13.2610
 XXYZ=              0.0800 YYXZ=             -0.0489 ZZXY=             -2.3572
 N-N= 8.166033357318D+01 E-N=-1.538227379836D+03  KE= 5.744734759857D+02
  Exact polarizability:   0.000   0.000   0.000   0.000   0.000   0.000
 Approx polarizability:  23.801  -0.448  20.351  -0.005   0.010  18.073

 This type of calculation cannot be archived.


 DEPRESSION IS WAITING FOR YOUR SHIP TO COME IN,
 AND FINDING OUT IT'S THE TITANIC.
 Job cpu time:       0 days  0 hours  7 minutes 35.6 seconds.
 File lengths (MBytes):  RWF=    214 Int=      0 D2E=      0 Chk=      2 Scr=      1
 Normal termination of Gaussian 09 at Tue Mar  5 10:35:41 2019.
