 Entering Gaussian System, Link 0=g09
 Initial command:
 /opt/software/gaussian/g09.e01/l1.exe "/localscratch/rjackson.18103347.0/Gau-34176.inp" -scrdir="/localscratch/rjackson.18103347.0/"
 Entering Link 1 = /opt/software/gaussian/g09.e01/l1.exe PID=     34179.
  
 Copyright (c) 1988,1990,1992,1993,1995,1998,2003,2009,2015,
            Gaussian, Inc.  All Rights Reserved.
  
 This is part of the Gaussian(R) 09 program.  It is based on
 the Gaussian(R) 03 system (copyright 2003, Gaussian, Inc.),
 the Gaussian(R) 98 system (copyright 1998, Gaussian, Inc.),
 the Gaussian(R) 94 system (copyright 1995, Gaussian, Inc.),
 the Gaussian 92(TM) system (copyright 1992, Gaussian, Inc.),
 the Gaussian 90(TM) system (copyright 1990, Gaussian, Inc.),
 the Gaussian 88(TM) system (copyright 1988, Gaussian, Inc.),
 the Gaussian 86(TM) system (copyright 1986, Carnegie Mellon
 University), and the Gaussian 82(TM) system (copyright 1983,
 Carnegie Mellon University). Gaussian is a federally registered
 trademark of Gaussian, Inc.
  
 This software contains proprietary and confidential information,
 including trade secrets, belonging to Gaussian, Inc.
  
 This software is provided under written license and may be
 used, copied, transmitted, or stored only in accord with that
 written license.
  
 The following legend is applicable only to US Government
 contracts under FAR:
  
                    RESTRICTED RIGHTS LEGEND
  
 Use, reproduction and disclosure by the US Government is
 subject to restrictions as set forth in subparagraphs (a)
 and (c) of the Commercial Computer Software - Restricted
 Rights clause in FAR 52.227-19.
  
 Gaussian, Inc.
 340 Quinnipiac St., Bldg. 40, Wallingford CT 06492
  
  
 ---------------------------------------------------------------
 Warning -- This program may not be used in any manner that
 competes with the business of Gaussian, Inc. or will provide
 assistance to any competitor of Gaussian, Inc.  The licensee
 of this program is prohibited from giving any competitor of
 Gaussian, Inc. access to this program.  By using this program,
 the user acknowledges that Gaussian, Inc. is engaged in the
 business of creating and licensing software in the field of
 computational chemistry and represents and warrants to the
 licensee that it is not a competitor of Gaussian, Inc. and that
 it will not use this program in any manner prohibited above.
 ---------------------------------------------------------------
  

 Cite this work as:
 Gaussian 09, Revision E.01,
 M. J. Frisch, G. W. Trucks, H. B. Schlegel, G. E. Scuseria, 
 M. A. Robb, J. R. Cheeseman, G. Scalmani, V. Barone, B. Mennucci, 
 G. A. Petersson, H. Nakatsuji, M. Caricato, X. Li, H. P. Hratchian, 
 A. F. Izmaylov, J. Bloino, G. Zheng, J. L. Sonnenberg, M. Hada, 
 M. Ehara, K. Toyota, R. Fukuda, J. Hasegawa, M. Ishida, T. Nakajima, 
 Y. Honda, O. Kitao, H. Nakai, T. Vreven, J. A. Montgomery, Jr., 
 J. E. Peralta, F. Ogliaro, M. Bearpark, J. J. Heyd, E. Brothers, 
 K. N. Kudin, V. N. Staroverov, T. Keith, R. Kobayashi, J. Normand, 
 K. Raghavachari, A. Rendell, J. C. Burant, S. S. Iyengar, J. Tomasi, 
 M. Cossi, N. Rega, J. M. Millam, M. Klene, J. E. Knox, J. B. Cross, 
 V. Bakken, C. Adamo, J. Jaramillo, R. Gomperts, R. E. Stratmann, 
 O. Yazyev, A. J. Austin, R. Cammi, C. Pomelli, J. W. Ochterski, 
 R. L. Martin, K. Morokuma, V. G. Zakrzewski, G. A. Voth, 
 P. Salvador, J. J. Dannenberg, S. Dapprich, A. D. Daniels, 
 O. Farkas, J. B. Foresman, J. V. Ortiz, J. Cioslowski, 
 and D. J. Fox, Gaussian, Inc., Wallingford CT, 2013.
 
 ******************************************
 Gaussian 09:  EM64L-G09RevE.01 30-Nov-2015
                12-Mar-2019 
 ******************************************
 ----------------------------------------------------------------------
 # mp2/cc-PVDZ irc(reverse, calcfc, maxpoints=2, stepsize=10, tight) in
 tegral(grid=superfine) scf(maxcyc=256)
 ----------------------------------------------------------------------
 1/7=10,10=4,18=10,22=2,38=1,39=10,42=2,44=3/1,23;
 2/12=2,17=6,18=5,29=1,40=1/2;
 3/5=16,11=9,16=1,25=1,30=1,71=2,75=-7,140=1/1,2,3;
 4//1;
 5/5=2,7=256,38=5/2;
 8/6=3,8=1,10=1,19=11,30=-1/1;
 9/15=3,16=-3/6;
 11/6=1,8=1,15=11,17=12,24=-1,27=1,28=-2,29=300,32=6,42=3/1,2,10;
 10/6=2,21=1/2;
 8/6=4,8=1,10=1,19=11,30=-1/11,4;
 10/5=1,20=4/2;
 11/12=2,14=11,16=1,17=2,28=-2,42=3/2,10,12;
 6/7=2,8=2,9=2,10=2/1;
 7/10=1,12=2,25=1,44=2/1,2,3,16;
 1/7=10,10=4,18=10,22=2,39=10,42=2,44=3/23(2);
 2/29=1/2;
 99/5=20/99;
 2/29=1/2;
 3/5=16,11=9,16=1,25=1,30=1,71=2,75=-7,140=1/1,2,3;
 4/5=5,16=3,69=1/1;
 5/5=2,7=256,38=5/2;
 8/6=3,8=1,10=1,19=11,30=-1/1;
 9/15=3,16=-3/6;
 11/6=1,8=1,15=11,17=12,24=-1,27=1,28=-2,29=300,32=6,42=3/1,2,10;
 10/6=2,21=1/2;
 8/6=4,8=1,10=1,19=11,30=-1/11,4;
 10/5=1,20=4/2;
 11/12=2,14=11,16=1,17=2,28=-2,42=3/2,10,12;
 7/10=1,12=2,25=1,44=2/1,2,3,16;
 1/7=10,18=10,22=2,39=10,42=2,44=3/23(-12);
 2/29=1/2;
 6/7=2,8=2,9=2,10=2/1;
 99/5=20/99;
 -------------------------
 OH-chloromethane_reactant
 -------------------------
 Symbolic Z-matrix:
 Charge = -1 Multiplicity = 1
 Cl                   -1.59492  -0.17223  -0.05233 
 C                     0.33708   0.03751   0.02455 
 H                     0.62481  -0.46667   0.94615 
 H                     0.79663  -0.39477  -0.86283 
 H                     0.48817   1.11628   0.07803 
 O                     2.70246   0.03846  -0.22828 
 H                     2.75706  -0.87842   0.09471 
 
 IRC-IRC-IRC-IRC-IRC-IRC-IRC-IRC-IRC-IRC-IRC-IRC-IRC-IRC-IRC-IRC-IRC-IRC
 ------------------------------------------------------------------------
 INPUT DATA FOR L123
 ------------------------------------------------------------------------
 GENERAL PARAMETERS:
 Rxn path following direction = Reverse
 Maximum points per path      =   2
 Step size                    =   0.100 bohr
 Integration scheme           = HPC                                 
    Redo corrector integration= Yes                                 
    DWI Weight Power          =  2
    DWI will use Hessian update vectors when possible.
    Max correction cycles     =  20
 Initial Hessian              = CalcFC
 Hessian evaluation           = All updating
 Hessian updating method      = Bofill                              
 ------------------------------------------------------------------------
 IRC-IRC-IRC-IRC-IRC-IRC-IRC-IRC-IRC-IRC-IRC-IRC-IRC-IRC-IRC-IRC-IRC-IRC
                          Input orientation:                          
 ---------------------------------------------------------------------
 Center     Atomic      Atomic             Coordinates (Angstroms)
 Number     Number       Type             X           Y           Z
 ---------------------------------------------------------------------
      1         17           0       -1.594915   -0.172227   -0.052327
      2          6           0        0.337081    0.037514    0.024553
      3          1           0        0.624810   -0.466670    0.946153
      4          1           0        0.796626   -0.394766   -0.862834
      5          1           0        0.488174    1.116279    0.078027
      6          8           0        2.702459    0.038461   -0.228277
      7          1           0        2.757059   -0.878419    0.094712
 ---------------------------------------------------------------------
                    Distance matrix (angstroms):
                    1          2          3          4          5
     1  Cl   0.000000
     2  C    1.944868   0.000000
     3  H    2.451701   1.089191   0.000000
     4  H    2.534939   1.088808   1.818550   0.000000
     5  H    2.452855   1.090606   1.810536   1.806549   0.000000
     6  O    4.306132   2.378852   2.439481   2.054884   2.481647
     7  H    4.411350   2.588465   2.332590   2.234751   3.021082
                    6          7
     6  O    0.000000
     7  H    0.973639   0.000000
 Symmetry turned off by external request.
 Stoichiometry    CH4ClO(1-)
 Framework group  C1[X(CH4ClO)]
 Deg. of freedom    15
 Full point group                 C1      NOp   1
 Rotational constants (GHZ):    107.7014036      2.3136304      2.3066233
 Standard basis: CC-pVDZ (5D, 7F)
    66 basis functions,   165 primitive gaussians,    69 cartesian basis functions
    18 alpha electrons       18 beta electrons
       nuclear repulsion energy        89.4021524298 Hartrees.
 NAtoms=    7 NActive=    7 NUniq=    7 SFac= 1.00D+00 NAtFMM=   60 NAOKFM=F Big=F
 Integral buffers will be    131072 words long.
 Raffenetti 1 integral format.
 Two-electron integral symmetry is turned off.
 One-electron integrals computed using PRISM.
 NBasis=    66 RedAO= T EigKep=  1.94D-02  NBF=    66
 NBsUse=    66 1.00D-06 EigRej= -1.00D+00 NBFU=    66
 ExpMin= 1.22D-01 ExpMax= 1.28D+05 ExpMxC= 1.24D+03 IAcc=3 IRadAn=         7 AccDes= 0.00D+00
 Harris functional with IExCor=  205 and IRadAn=       7 diagonalized for initial guess.
 HarFok:  IExCor=  205 AccDes= 0.00D+00 IRadAn=         7 IDoV= 1 UseB2=F ITyADJ=14
 ICtDFT=  3500011 ScaDFX=  1.000000  1.000000  1.000000  1.000000
 FoFCou: FMM=F IPFlag=           0 FMFlag=      100000 FMFlg1=           0
         NFxFlg=           0 DoJE=T BraDBF=F KetDBF=T FulRan=T
         wScrn=  0.000000 ICntrl=     500 IOpCl=  0 I1Cent=   200000004 NGrid=           0
         NMat0=    1 NMatS0=      1 NMatT0=    0 NMatD0=    1 NMtDS0=    0 NMtDT0=    0
 Symmetry not used in FoFCou.
 Keep R1 ints in memory in canonical form, NReq=3411413.
 Requested convergence on RMS density matrix=1.00D-08 within 256 cycles.
 Requested convergence on MAX density matrix=1.00D-06.
 Requested convergence on             energy=1.00D-06.
 No special actions if energy rises.
 SCF Done:  E(RHF) =  -574.487237849     A.U. after   13 cycles
            NFock= 13  Conv=0.51D-08     -V/T= 1.9999
 ExpMin= 1.22D-01 ExpMax= 1.28D+05 ExpMxC= 1.24D+03 IAcc=3 IRadAn=         7 AccDes= 0.00D+00
 HarFok:  IExCor=  205 AccDes= 0.00D+00 IRadAn=         7 IDoV=-2 UseB2=F ITyADJ=14
 ICtDFT= 12500011 ScaDFX=  1.000000  1.000000  1.000000  1.000000
 Range of M.O.s used for correlation:     8    66
 NBasis=    66 NAE=    18 NBE=    18 NFC=     7 NFV=     0
 NROrb=     59 NOA=    11 NOB=    11 NVA=    48 NVB=    48
 Disk-based method using ON**2 memory for 11 occupieds at a time.
 Permanent disk used for amplitudes=      919080 words.
 Estimated scratch disk usage=     7093296 words.
 Actual    scratch disk usage=     7093296 words.
 JobTyp=1 Pass  1:  I=   8 to  18 NPSUse=  1 ParTrn=F ParDer=F DoDerP=T.
 (rs|ai) integrals will be sorted in core.
 Spin components of T(2) and E(2):
     alpha-alpha T2 =       0.2038451773D-01 E2=     -0.6144127932D-01
     alpha-beta  T2 =       0.1197385665D+00 E2=     -0.3688742981D+00
     beta-beta   T2 =       0.2038451773D-01 E2=     -0.6144127932D-01
 ANorm=    0.1077268584D+01
 E2 =    -0.4917568567D+00 EUMP2 =    -0.57497899470541D+03
 G2DrvN: will do     8 centers at a time, making    1 passes.
 Calling FoFCou, ICntrl=  3107 FMM=F I1Cent=   0 AccDes= 0.00D+00.
 End of G2Drv F.D. properties file   721 does not exist.
 End of G2Drv F.D. properties file   722 does not exist.
 End of G2Drv F.D. properties file   788 does not exist.
          IDoAtm=1111111
          Differentiating once with respect to electric field.
                with respect to dipole field.
          Differentiating once with respect to nuclear coordinates.
 Keep R1 ints in memory in canonical form, NReq=3351898.
          There are    24 degrees of freedom in the 1st order CPHF.  IDoFFX=6 NUNeed=    24.
     21 vectors produced by pass  0 Test12= 3.60D-15 4.17D-09 XBig12= 1.51D+01 2.16D+00.
 AX will form    21 AO Fock derivatives at one time.
     21 vectors produced by pass  1 Test12= 3.60D-15 4.17D-09 XBig12= 7.17D-01 2.37D-01.
     21 vectors produced by pass  2 Test12= 3.60D-15 4.17D-09 XBig12= 3.90D-02 4.20D-02.
     21 vectors produced by pass  3 Test12= 3.60D-15 4.17D-09 XBig12= 4.17D-04 3.49D-03.
     21 vectors produced by pass  4 Test12= 3.60D-15 4.17D-09 XBig12= 2.65D-06 4.13D-04.
     21 vectors produced by pass  5 Test12= 3.60D-15 4.17D-09 XBig12= 1.03D-08 2.25D-05.
     16 vectors produced by pass  6 Test12= 3.60D-15 4.17D-09 XBig12= 5.80D-11 1.15D-06.
      3 vectors produced by pass  7 Test12= 3.60D-15 4.17D-09 XBig12= 4.13D-13 9.25D-08.
      2 vectors produced by pass  8 Test12= 3.60D-15 4.17D-09 XBig12= 2.36D-15 6.79D-09.
 InvSVY:  IOpt=1 It=  1 EMax= 2.22D-15
 Solved reduced A of dimension   147 with    24 vectors.
 End of Minotr F.D. properties file   721 does not exist.
 End of Minotr F.D. properties file   722 does not exist.
 End of Minotr F.D. properties file   788 does not exist.
 MDV=    33554432.
 Form MO integral derivatives with frozen-active canonical formalism.
 Discarding MO integrals.
 Reordered first order wavefunction length =      1492992
 In DefCFB: NBatch=  1 ICI= 18 ICA= 48 LFMax= 18
            Large arrays: LIAPS=    15738624 LIARS=     7928928 words.
 Semi-Direct transformation.
 ModeAB=           4 MOrb=            18 LenV=      33288692
 LASXX=      2037645 LTotXX=     2037645 LenRXX=     4178286
 LTotAB=     2140641 MaxLAS=     2865456 LenRXY=           0
 NonZer=     6215931 LenScr=    10097152 LnRSAI=     2865456
 LnScr1=     5014016 LExtra=           0 Total=     22154910
 MaxDsk=          -1 SrtSym=           T ITran=            4
 JobTyp=0 Pass  1:  I=   1 to  18.
 (rs|ai) integrals will be sorted in core.
 Spin components of T(2) and E(2):
     alpha-alpha T2 =       0.2038451773D-01 E2=     -0.6144127932D-01
     alpha-beta  T2 =       0.1197385665D+00 E2=     -0.3688742981D+00
     beta-beta   T2 =       0.2038451773D-01 E2=     -0.6144127932D-01
 ANorm=    0.1523487842D+01
 E2 =    -0.4917568567D+00 EUMP2 =    -0.57497899470541D+03
          IDoAtm=1111111
          Differentiating once with respect to electric field.
                with respect to dipole field.
          Differentiating once with respect to nuclear coordinates.
          There are     1 degrees of freedom in the 1st order CPHF.  IDoFFX=0 NUNeed=     1.
 LinEq1:  Iter=  0 NonCon=     1 RMS=8.11D-03 Max=1.19D-01 NDo=     1
 LinEq1:  Iter=  1 NonCon=     1 RMS=1.85D-03 Max=1.80D-02 NDo=     1
 LinEq1:  Iter=  2 NonCon=     1 RMS=6.04D-04 Max=6.95D-03 NDo=     1
 LinEq1:  Iter=  3 NonCon=     1 RMS=2.05D-04 Max=2.24D-03 NDo=     1
 LinEq1:  Iter=  4 NonCon=     1 RMS=6.90D-05 Max=6.97D-04 NDo=     1
 LinEq1:  Iter=  5 NonCon=     1 RMS=1.74D-05 Max=1.65D-04 NDo=     1
 LinEq1:  Iter=  6 NonCon=     1 RMS=4.42D-06 Max=3.70D-05 NDo=     1
 LinEq1:  Iter=  7 NonCon=     1 RMS=1.00D-06 Max=8.80D-06 NDo=     1
 LinEq1:  Iter=  8 NonCon=     1 RMS=2.46D-07 Max=2.06D-06 NDo=     1
 LinEq1:  Iter=  9 NonCon=     1 RMS=5.52D-08 Max=6.10D-07 NDo=     1
 LinEq1:  Iter= 10 NonCon=     1 RMS=1.17D-08 Max=1.24D-07 NDo=     1
 LinEq1:  Iter= 11 NonCon=     1 RMS=1.82D-09 Max=1.22D-08 NDo=     1
 LinEq1:  Iter= 12 NonCon=     1 RMS=3.28D-10 Max=2.95D-09 NDo=     1
 LinEq1:  Iter= 13 NonCon=     0 RMS=7.66D-11 Max=5.36D-10 NDo=     1
 Linear equations converged to 1.000D-10 1.000D-09 after    13 iterations.
 End of Minotr F.D. properties file   721 does not exist.
 End of Minotr F.D. properties file   722 does not exist.
 End of Minotr F.D. properties file   788 does not exist.
 Symmetrizing basis deriv contribution to polar:
 IMax=3 JMax=2 DiffMx= 0.00D+00
 G2DrvN: will do     8 centers at a time, making    1 passes.
 Calling FoFCou, ICntrl=  3107 FMM=F I1Cent=   0 AccDes= 0.00D+00.
 End of G2Drv F.D. properties file   721 does not exist.
 End of G2Drv F.D. properties file   722 does not exist.
 End of G2Drv F.D. properties file   788 does not exist.
 R2 and R3 integrals will be kept in memory, NReq=     6654640.
 DD1Dir will call FoFMem   1 times, MxPair=       342
 NAB=   171 NAA=     0 NBB=     0.
 Discarding MO integrals.

 **********************************************************************

            Population analysis using the SCF density.

 **********************************************************************

 Alpha  occ. eigenvalues -- -104.62650 -20.17142 -11.11874 -10.35249  -7.81965
 Alpha  occ. eigenvalues --   -7.81731  -7.81730  -0.91575  -0.90157  -0.72460
 Alpha  occ. eigenvalues --   -0.42186  -0.41575  -0.32734  -0.26185  -0.25904
 Alpha  occ. eigenvalues --   -0.24615  -0.11573  -0.10354
 Alpha virt. eigenvalues --    0.35298   0.39141   0.42168   0.45014   0.48071
 Alpha virt. eigenvalues --    0.76558   0.77317   0.88414   0.94993   0.95442
 Alpha virt. eigenvalues --    0.97265   1.03203   1.03698   1.05371   1.10779
 Alpha virt. eigenvalues --    1.14172   1.17226   1.18813   1.18975   1.20281
 Alpha virt. eigenvalues --    1.36367   1.43868   1.46408   1.58104   1.61468
 Alpha virt. eigenvalues --    1.65533   1.73664   1.82366   1.85876   1.87908
 Alpha virt. eigenvalues --    2.01859   2.06090   2.14278   2.18910   2.22027
 Alpha virt. eigenvalues --    2.29026   2.48257   2.60825   2.63764   2.76531
 Alpha virt. eigenvalues --    2.93288   2.94762   2.95499   3.36602   3.44600
 Alpha virt. eigenvalues --    3.66979   3.67685   4.40182
          Condensed to atoms (all electrons):
               1          2          3          4          5          6
     1  Cl  17.470780   0.090023  -0.034540  -0.027370  -0.035996   0.002384
     2  C    0.090023   4.652855   0.414239   0.378314   0.420674   0.016737
     3  H   -0.034540   0.414239   0.592567  -0.027094  -0.017980   0.009929
     4  H   -0.027370   0.378314  -0.027094   0.552729  -0.018484   0.044886
     5  H   -0.035996   0.420674  -0.017980  -0.018484   0.572340   0.005194
     6  O    0.002384   0.016737   0.009929   0.044886   0.005194   8.477531
     7  H   -0.000674  -0.010843   0.001386  -0.008131  -0.001401   0.295013
               7
     1  Cl  -0.000674
     2  C   -0.010843
     3  H    0.001386
     4  H   -0.008131
     5  H   -0.001401
     6  O    0.295013
     7  H    0.688668
 Mulliken charges:
               1
     1  Cl  -0.464607
     2  C    0.038002
     3  H    0.061493
     4  H    0.105150
     5  H    0.075653
     6  O   -0.851674
     7  H    0.035983
 Sum of Mulliken charges =  -1.00000
 Mulliken charges with hydrogens summed into heavy atoms:
               1
     1  Cl  -0.464607
     2  C    0.280298
     6  O   -0.815691
 APT charges:
               1
     1  Cl  -0.918072
     2  C    0.902838
     3  H   -0.030192
     4  H    0.074606
     5  H   -0.018667
     6  O   -1.018185
     7  H    0.007671
 Sum of APT charges =  -1.00000
 APT charges with hydrogens summed into heavy atoms:
               1
     1  Cl  -0.918072
     2  C    0.928586
     6  O   -1.010514
 Electronic spatial extent (au):  <R**2>=            503.7494
 Charge=             -1.0000 electrons
 Dipole moment (field-independent basis, Debye):
    X=             -6.2121    Y=             -0.5394    Z=              1.3338  Tot=              6.3765
 Quadrupole moment (field-independent basis, Debye-Ang):
   XX=            -63.8557   YY=            -26.8981   ZZ=            -28.4140
   XY=             -3.6030   XZ=              3.1219   YZ=             -0.2868
 Traceless Quadrupole moment (field-independent basis, Debye-Ang):
   XX=            -24.1331   YY=             12.8245   ZZ=             11.3086
   XY=             -3.6030   XZ=              3.1219   YZ=             -0.2868
 Octapole moment (field-independent basis, Debye-Ang**2):
  XXX=            -78.0159  YYY=              7.7133  ZZZ=              5.9859  XYY=              2.9106
  XXY=             -5.1092  XXZ=             11.2799  XZZ=             -1.1819  YZZ=              1.8704
  YYZ=              2.0045  XYZ=             -0.5931
 Hexadecapole moment (field-independent basis, Debye-Ang**3):
 XXXX=           -804.4575 YYYY=            -38.5780 ZZZZ=            -37.2605 XXXY=            -30.6994
 XXXZ=             33.7521 YYYX=             -9.5619 YYYZ=             -0.2931 ZZZX=              8.6468
 ZZZY=             -0.3478 XXYY=            -94.8611 XXZZ=           -105.5712 YYZZ=            -12.9333
 XXYZ=             -1.7177 YYXZ=              2.7372 ZZXY=             -3.0853
 N-N= 8.940215242983D+01 E-N=-1.553471546394D+03  KE= 5.745259516660D+02
  Exact polarizability:  71.153  -0.541  23.651   0.042  -1.077  21.049
 Approx polarizability:  39.622   1.152  21.656   0.186  -1.277  18.567
 Calling FoFJK, ICntrl=  10100127 FMM=F ISym2X=0 I1Cent= 0 IOpClX= 0 NMat=1 NMatS=1 NMatT=0.
 -------------------------------------------------------------------
 Center     Atomic                   Forces (Hartrees/Bohr)
 Number     Number              X              Y              Z
 -------------------------------------------------------------------
      1       17           0.000000255    0.000000064    0.000000014
      2        6          -0.000000481   -0.000001719    0.000000137
      3        1          -0.000000421    0.000000483   -0.000000338
      4        1          -0.000000268    0.000000067    0.000000228
      5        1           0.000000606    0.000000588    0.000000110
      6        8           0.000000781    0.000000395   -0.000000008
      7        1          -0.000000472    0.000000122   -0.000000143
 -------------------------------------------------------------------
 Cartesian Forces:  Max     0.000001719 RMS     0.000000520
 IRC-IRC-IRC-IRC-IRC-IRC-IRC-IRC-IRC-IRC-IRC-IRC-IRC-IRC-IRC-IRC-IRC-IRC
          ******** Start new reaction path calculation ********
 Supplied step size of   0.1000 bohr.
    Integration on MW PES will use step size of   0.1913 sqrt(amu)*bohr.
 Point Number:   0          Path Number:   1
 Calculating another point on the path.
 IRC-IRC-IRC-IRC-IRC-IRC-IRC-IRC-IRC-IRC-IRC-IRC-IRC-IRC-IRC-IRC-IRC-IRC
                          Input orientation:                          
 ---------------------------------------------------------------------
 Center     Atomic      Atomic             Coordinates (Angstroms)
 Number     Number       Type             X           Y           Z
 ---------------------------------------------------------------------
      1         17           0       -1.540653   -0.087713    0.023481
      2          6           0        0.411851    0.115680    0.087438
      3          1           0        0.693034   -0.392448    1.007817
      4          1           0        0.830579   -0.327655   -0.812674
      5          1           0        0.557805    1.194565    0.135527
      6          8           0        2.750988    0.125233   -0.147930
      7          1           0        2.811136   -0.795986    0.161256
 ---------------------------------------------------------------------
                    Distance matrix (angstroms):
                    1          2          3          4          5
     1  Cl   0.000000
     2  C    1.964111   0.000000
     3  H    2.459907   1.088281   0.000000
     4  H    2.525761   1.087236   1.826830   0.000000
     5  H    2.461772   1.089775   1.815981   1.814014   0.000000
     6  O    4.300338   2.350968   2.416386   2.082057   2.456393
     7  H    4.411202   2.567713   2.316433   2.256209   3.006735
                    6          7
     6  O    0.000000
     7  H    0.973580   0.000000
 Symmetry turned off by external request.
 Stoichiometry    CH4ClO(1-)
 Framework group  C1[X(CH4ClO)]
 Deg. of freedom    15
 Full point group                 C1      NOp   1
 Rotational constants (GHZ):    108.7708651      2.3173404      2.3099197
 Standard basis: CC-pVDZ (5D, 7F)
    66 basis functions,   165 primitive gaussians,    69 cartesian basis functions
    18 alpha electrons       18 beta electrons
       nuclear repulsion energy        89.2898949087 Hartrees.
 NAtoms=    7 NActive=    7 NUniq=    7 SFac= 1.00D+00 NAtFMM=   60 NAOKFM=F Big=F
 Integral buffers will be    131072 words long.
 Raffenetti 1 integral format.
 Two-electron integral symmetry is turned off.
 One-electron integrals computed using PRISM.
 NBasis=    66 RedAO= T EigKep=  1.97D-02  NBF=    66
 NBsUse=    66 1.00D-06 EigRej= -1.00D+00 NBFU=    66
 Initial guess from the checkpoint file:  "/localscratch/rjackson.18103347.0/Gau-34179.chk"
 B after Tr=     0.107256    0.156712    0.137393
         Rot=    1.000000    0.000068   -0.000171    0.000088 Ang=   0.02 deg.
 ExpMin= 1.22D-01 ExpMax= 1.28D+05 ExpMxC= 1.24D+03 IAcc=3 IRadAn=         5 AccDes= 0.00D+00
 Harris functional with IExCor=  205 and IRadAn=       5 diagonalized for initial guess.
 HarFok:  IExCor=  205 AccDes= 0.00D+00 IRadAn=         5 IDoV= 1 UseB2=F ITyADJ=14
 ICtDFT=  3500011 ScaDFX=  1.000000  1.000000  1.000000  1.000000
 FoFCou: FMM=F IPFlag=           0 FMFlag=      100000 FMFlg1=           0
         NFxFlg=           0 DoJE=T BraDBF=F KetDBF=T FulRan=T
         wScrn=  0.000000 ICntrl=     500 IOpCl=  0 I1Cent=   200000004 NGrid=           0
         NMat0=    1 NMatS0=      1 NMatT0=    0 NMatD0=    1 NMtDS0=    0 NMtDT0=    0
 Symmetry not used in FoFCou.
 Keep R1 ints in memory in canonical form, NReq=3411371.
 Requested convergence on RMS density matrix=1.00D-08 within 256 cycles.
 Requested convergence on MAX density matrix=1.00D-06.
 Requested convergence on             energy=1.00D-06.
 No special actions if energy rises.
 SCF Done:  E(RHF) =  -574.487493524     A.U. after   12 cycles
            NFock= 12  Conv=0.32D-08     -V/T= 1.9999
 ExpMin= 1.22D-01 ExpMax= 1.28D+05 ExpMxC= 1.24D+03 IAcc=3 IRadAn=         7 AccDes= 0.00D+00
 HarFok:  IExCor=  205 AccDes= 0.00D+00 IRadAn=         7 IDoV=-2 UseB2=F ITyADJ=14
 ICtDFT= 12500011 ScaDFX=  1.000000  1.000000  1.000000  1.000000
 Range of M.O.s used for correlation:     8    66
 NBasis=    66 NAE=    18 NBE=    18 NFC=     7 NFV=     0
 NROrb=     59 NOA=    11 NOB=    11 NVA=    48 NVB=    48
 Fully direct method using O(ONN) memory.
 JobTyp=1 Pass  1:  I=   8 to  18 NPSUse=  1 ParTrn=F ParDer=F DoDerP=T.
 Spin components of T(2) and E(2):
     alpha-alpha T2 =       0.2038126041D-01 E2=     -0.6138876777D-01
     alpha-beta  T2 =       0.1198635107D+00 E2=     -0.3687740517D+00
     beta-beta   T2 =       0.2038126041D-01 E2=     -0.6138876777D-01
 ANorm=    0.1077323550D+01
 E2 =    -0.4915515872D+00 EUMP2 =    -0.57497904511106D+03
          IDoAtm=1111111
          Differentiating once with respect to electric field.
                with respect to dipole field.
          Differentiating once with respect to nuclear coordinates.
 Keep R1 ints in memory in canonical form, NReq=3353780.
          There are     1 degrees of freedom in the 1st order CPHF.  IDoFFX=0 NUNeed=     1.
 LinEq1:  Iter=  0 NonCon=     1 RMS=8.29D-03 Max=1.23D-01 NDo=     1
 AX will form     1 AO Fock derivatives at one time.
 LinEq1:  Iter=  1 NonCon=     1 RMS=1.92D-03 Max=1.82D-02 NDo=     1
 LinEq1:  Iter=  2 NonCon=     1 RMS=6.31D-04 Max=7.36D-03 NDo=     1
 LinEq1:  Iter=  3 NonCon=     1 RMS=2.17D-04 Max=2.09D-03 NDo=     1
 LinEq1:  Iter=  4 NonCon=     1 RMS=7.28D-05 Max=7.53D-04 NDo=     1
 LinEq1:  Iter=  5 NonCon=     1 RMS=1.82D-05 Max=1.70D-04 NDo=     1
 LinEq1:  Iter=  6 NonCon=     1 RMS=4.69D-06 Max=4.00D-05 NDo=     1
 LinEq1:  Iter=  7 NonCon=     1 RMS=1.06D-06 Max=9.31D-06 NDo=     1
 LinEq1:  Iter=  8 NonCon=     1 RMS=2.64D-07 Max=2.56D-06 NDo=     1
 LinEq1:  Iter=  9 NonCon=     1 RMS=6.18D-08 Max=6.99D-07 NDo=     1
 LinEq1:  Iter= 10 NonCon=     1 RMS=1.26D-08 Max=1.19D-07 NDo=     1
 LinEq1:  Iter= 11 NonCon=     1 RMS=1.89D-09 Max=1.27D-08 NDo=     1
 LinEq1:  Iter= 12 NonCon=     1 RMS=3.27D-10 Max=3.05D-09 NDo=     1
 LinEq1:  Iter= 13 NonCon=     0 RMS=7.50D-11 Max=5.94D-10 NDo=     1
 Linear equations converged to 1.000D-10 1.000D-09 after    13 iterations.
 End of Minotr F.D. properties file   721 does not exist.
 End of Minotr F.D. properties file   722 does not exist.
 End of Minotr F.D. properties file   788 does not exist.
 Symmetrizing basis deriv contribution to polar:
 IMax=3 JMax=2 DiffMx= 0.00D+00
 Calling FoFJK, ICntrl=  10002127 FMM=F ISym2X=0 I1Cent= 0 IOpClX= 0 NMat=1 NMatS=1 NMatT=0.
 -------------------------------------------------------------------
 Center     Atomic                   Forces (Hartrees/Bohr)
 Number     Number              X              Y              Z
 -------------------------------------------------------------------
      1       17          -0.000594495    0.000168599    0.000366515
      2        6           0.001652624   -0.000459342   -0.001016156
      3        1          -0.000015472   -0.000049385   -0.000038159
      4        1          -0.000277159    0.000120879    0.000303306
      5        1           0.000002414   -0.000018437   -0.000069262
      6        8          -0.000745376    0.000123687    0.000533420
      7        1          -0.000022537    0.000113998   -0.000079664
 -------------------------------------------------------------------
 Cartesian Forces:  Max     0.001652624 RMS     0.000514499
 IRC-IRC-IRC-IRC-IRC-IRC-IRC-IRC-IRC-IRC-IRC-IRC-IRC-IRC-IRC-IRC-IRC-IRC
 Pt  1 Step number   1 out of a maximum of  20
 Modified Bulirsch-Stoer Extrapolation Cycles:
    EPS =    0.000000333333333
 Maximum DWI energy   std dev =  0.000000795 at pt    40
 Maximum DWI gradient std dev =  0.492060393 at pt     4
 CORRECTOR INTEGRATION CONVERGENCE:
   Recorrection delta-x convergence threshold:    0.001826
   Delta-x Convergence NOT Met
 IRC-IRC-IRC-IRC-IRC-IRC-IRC-IRC-IRC-IRC-IRC-IRC-IRC-IRC-IRC-IRC-IRC-IRC
                          Input orientation:                          
 ---------------------------------------------------------------------
 Center     Atomic      Atomic             Coordinates (Angstroms)
 Number     Number       Type             X           Y           Z
 ---------------------------------------------------------------------
      1         17           0       -1.540848   -0.087834    0.023281
      2          6           0        0.412895    0.116106    0.088133
      3          1           0        0.691979   -0.392121    1.009082
      4          1           0        0.831661   -0.327031   -0.811253
      5          1           0        0.557113    1.195190    0.136429
      6          8           0        2.750705    0.125016   -0.148352
      7          1           0        2.810796   -0.795840    0.161456
 ---------------------------------------------------------------------
                    Distance matrix (angstroms):
                    1          2          3          4          5
     1  Cl   0.000000
     2  C    1.965428   0.000000
     3  H    2.459656   1.088269   0.000000
     4  H    2.526354   1.086569   1.826846   0.000000
     5  H    2.461787   1.089750   1.816389   1.814012   0.000000
     6  O    4.300255   2.349758   2.417734   2.080028   2.457279
     7  H    4.411028   2.566506   2.317508   2.254533   3.007310
                    6          7
     6  O    0.000000
     7  H    0.973431   0.000000
 Symmetry turned off by external request.
 Stoichiometry    CH4ClO(1-)
 Framework group  C1[X(CH4ClO)]
 Deg. of freedom    15
 Full point group                 C1      NOp   1
 Rotational constants (GHZ):    108.6510448      2.3172531      2.3098606
 Standard basis: CC-pVDZ (5D, 7F)
    66 basis functions,   165 primitive gaussians,    69 cartesian basis functions
    18 alpha electrons       18 beta electrons
       nuclear repulsion energy        89.2804496953 Hartrees.
 NAtoms=    7 NActive=    7 NUniq=    7 SFac= 1.00D+00 NAtFMM=   60 NAOKFM=F Big=F
 Integral buffers will be    131072 words long.
 Raffenetti 1 integral format.
 Two-electron integral symmetry is turned off.
 One-electron integrals computed using PRISM.
 NBasis=    66 RedAO= T EigKep=  1.97D-02  NBF=    66
 NBsUse=    66 1.00D-06 EigRej= -1.00D+00 NBFU=    66
 Initial guess from the checkpoint file:  "/localscratch/rjackson.18103347.0/Gau-34179.chk"
 B after Tr=    -0.000017    0.000025    0.000060
         Rot=    1.000000    0.000013    0.000009   -0.000003 Ang=   0.00 deg.
 ExpMin= 1.22D-01 ExpMax= 1.28D+05 ExpMxC= 1.24D+03 IAcc=3 IRadAn=         5 AccDes= 0.00D+00
 Harris functional with IExCor=  205 and IRadAn=       5 diagonalized for initial guess.
 HarFok:  IExCor=  205 AccDes= 0.00D+00 IRadAn=         5 IDoV= 1 UseB2=F ITyADJ=14
 ICtDFT=  3500011 ScaDFX=  1.000000  1.000000  1.000000  1.000000
 FoFCou: FMM=F IPFlag=           0 FMFlag=      100000 FMFlg1=           0
         NFxFlg=           0 DoJE=T BraDBF=F KetDBF=T FulRan=T
         wScrn=  0.000000 ICntrl=     500 IOpCl=  0 I1Cent=   200000004 NGrid=           0
         NMat0=    1 NMatS0=      1 NMatT0=    0 NMatD0=    1 NMtDS0=    0 NMtDT0=    0
 Symmetry not used in FoFCou.
 Keep R1 ints in memory in canonical form, NReq=3411371.
 Requested convergence on RMS density matrix=1.00D-08 within 256 cycles.
 Requested convergence on MAX density matrix=1.00D-06.
 Requested convergence on             energy=1.00D-06.
 No special actions if energy rises.
 SCF Done:  E(RHF) =  -574.487506867     A.U. after    9 cycles
            NFock=  9  Conv=0.88D-08     -V/T= 1.9999
 ExpMin= 1.22D-01 ExpMax= 1.28D+05 ExpMxC= 1.24D+03 IAcc=3 IRadAn=         7 AccDes= 0.00D+00
 HarFok:  IExCor=  205 AccDes= 0.00D+00 IRadAn=         7 IDoV=-2 UseB2=F ITyADJ=14
 ICtDFT= 12500011 ScaDFX=  1.000000  1.000000  1.000000  1.000000
 Range of M.O.s used for correlation:     8    66
 NBasis=    66 NAE=    18 NBE=    18 NFC=     7 NFV=     0
 NROrb=     59 NOA=    11 NOB=    11 NVA=    48 NVB=    48
 Fully direct method using O(ONN) memory.
 JobTyp=1 Pass  1:  I=   8 to  18 NPSUse=  1 ParTrn=F ParDer=F DoDerP=T.
 Spin components of T(2) and E(2):
     alpha-alpha T2 =       0.2038183855D-01 E2=     -0.6138777570D-01
     alpha-beta  T2 =       0.1198673309D+00 E2=     -0.3687638661D+00
     beta-beta   T2 =       0.2038183855D-01 E2=     -0.6138777570D-01
 ANorm=    0.1077325860D+01
 E2 =    -0.4915394175D+00 EUMP2 =    -0.57497904628439D+03
          IDoAtm=1111111
          Differentiating once with respect to electric field.
                with respect to dipole field.
          Differentiating once with respect to nuclear coordinates.
 Keep R1 ints in memory in canonical form, NReq=3353780.
          There are     1 degrees of freedom in the 1st order CPHF.  IDoFFX=0 NUNeed=     1.
 LinEq1:  Iter=  0 NonCon=     1 RMS=8.31D-03 Max=1.23D-01 NDo=     1
 AX will form     1 AO Fock derivatives at one time.
 LinEq1:  Iter=  1 NonCon=     1 RMS=1.92D-03 Max=1.82D-02 NDo=     1
 LinEq1:  Iter=  2 NonCon=     1 RMS=6.33D-04 Max=7.38D-03 NDo=     1
 LinEq1:  Iter=  3 NonCon=     1 RMS=2.18D-04 Max=2.09D-03 NDo=     1
 LinEq1:  Iter=  4 NonCon=     1 RMS=7.30D-05 Max=7.56D-04 NDo=     1
 LinEq1:  Iter=  5 NonCon=     1 RMS=1.82D-05 Max=1.70D-04 NDo=     1
 LinEq1:  Iter=  6 NonCon=     1 RMS=4.71D-06 Max=4.02D-05 NDo=     1
 LinEq1:  Iter=  7 NonCon=     1 RMS=1.06D-06 Max=9.36D-06 NDo=     1
 LinEq1:  Iter=  8 NonCon=     1 RMS=2.65D-07 Max=2.57D-06 NDo=     1
 LinEq1:  Iter=  9 NonCon=     1 RMS=6.21D-08 Max=7.02D-07 NDo=     1
 LinEq1:  Iter= 10 NonCon=     1 RMS=1.26D-08 Max=1.19D-07 NDo=     1
 LinEq1:  Iter= 11 NonCon=     1 RMS=1.89D-09 Max=1.28D-08 NDo=     1
 LinEq1:  Iter= 12 NonCon=     1 RMS=3.28D-10 Max=3.07D-09 NDo=     1
 LinEq1:  Iter= 13 NonCon=     0 RMS=7.53D-11 Max=5.95D-10 NDo=     1
 Linear equations converged to 1.000D-10 1.000D-09 after    13 iterations.
 End of Minotr F.D. properties file   721 does not exist.
 End of Minotr F.D. properties file   722 does not exist.
 End of Minotr F.D. properties file   788 does not exist.
 Symmetrizing basis deriv contribution to polar:
 IMax=3 JMax=2 DiffMx= 0.00D+00
 Calling FoFJK, ICntrl=  10002127 FMM=F ISym2X=0 I1Cent= 0 IOpClX= 0 NMat=1 NMatS=1 NMatT=0.
 -------------------------------------------------------------------
 Center     Atomic                   Forces (Hartrees/Bohr)
 Number     Number              X              Y              Z
 -------------------------------------------------------------------
      1       17          -0.000574450    0.000165497    0.000343535
      2        6           0.001427918   -0.000277693   -0.000597043
      3        1           0.000041535   -0.000040132   -0.000053580
      4        1          -0.000133979   -0.000078859   -0.000102890
      5        1           0.000056063   -0.000024055   -0.000072538
      6        8          -0.000799142    0.000263919    0.000515366
      7        1          -0.000017945   -0.000008677   -0.000032851
 -------------------------------------------------------------------
 Cartesian Forces:  Max     0.001427918 RMS     0.000434973
 IRC-IRC-IRC-IRC-IRC-IRC-IRC-IRC-IRC-IRC-IRC-IRC-IRC-IRC-IRC-IRC-IRC-IRC
 Error in corrector energy =           0.0000001592
 Magnitude of corrector gradient =     0.0019183041
 Magnitude of analytic gradient =      0.0019932954
 Magnitude of difference =             0.0001130476
 Angle between gradients (degrees)=    2.4788
 Pt  1 Step number   2 out of a maximum of  20
 Modified Bulirsch-Stoer Extrapolation Cycles:
    EPS =    0.000000333333333
 Maximum DWI energy   std dev =  0.000000727 at pt    42
 Maximum DWI gradient std dev =  0.505672974 at pt     4
 CORRECTOR INTEGRATION CONVERGENCE:
   Recorrection delta-x convergence threshold:    0.001826
   Delta-x Convergence NOT Met
 IRC-IRC-IRC-IRC-IRC-IRC-IRC-IRC-IRC-IRC-IRC-IRC-IRC-IRC-IRC-IRC-IRC-IRC
                          Input orientation:                          
 ---------------------------------------------------------------------
 Center     Atomic      Atomic             Coordinates (Angstroms)
 Number     Number       Type             X           Y           Z
 ---------------------------------------------------------------------
      1         17           0       -1.540899   -0.087852    0.023255
      2          6           0        0.413086    0.116240    0.088349
      3          1           0        0.691800   -0.392043    1.009362
      4          1           0        0.831677   -0.326915   -0.811069
      5          1           0        0.556982    1.195352    0.136728
      6          8           0        2.750679    0.124995   -0.148397
      7          1           0        2.810788   -0.795787    0.161633
 ---------------------------------------------------------------------
                    Distance matrix (angstroms):
                    1          2          3          4          5
     1  Cl   0.000000
     2  C    1.965692   0.000000
     3  H    2.459651   1.088254   0.000000
     4  H    2.526334   1.086535   1.826958   0.000000
     5  H    2.461827   1.089738   1.816449   1.814131   0.000000
     6  O    4.300280   2.349567   2.417998   2.079886   2.457492
     7  H    4.411065   2.566347   2.317706   2.254523   3.007473
                    6          7
     6  O    0.000000
     7  H    0.973433   0.000000
 Symmetry turned off by external request.
 Stoichiometry    CH4ClO(1-)
 Framework group  C1[X(CH4ClO)]
 Deg. of freedom    15
 Full point group                 C1      NOp   1
 Rotational constants (GHZ):    108.6137323      2.3171908      2.3098078
 Standard basis: CC-pVDZ (5D, 7F)
    66 basis functions,   165 primitive gaussians,    69 cartesian basis functions
    18 alpha electrons       18 beta electrons
       nuclear repulsion energy        89.2774513368 Hartrees.
 NAtoms=    7 NActive=    7 NUniq=    7 SFac= 1.00D+00 NAtFMM=   60 NAOKFM=F Big=F
 Integral buffers will be    131072 words long.
 Raffenetti 1 integral format.
 Two-electron integral symmetry is turned off.
 One-electron integrals computed using PRISM.
 NBasis=    66 RedAO= T EigKep=  1.98D-02  NBF=    66
 NBsUse=    66 1.00D-06 EigRej= -1.00D+00 NBFU=    66
 Initial guess from the checkpoint file:  "/localscratch/rjackson.18103347.0/Gau-34179.chk"
 B after Tr=    -0.000012    0.000039    0.000077
         Rot=    1.000000   -0.000005    0.000005   -0.000002 Ang=  -0.00 deg.
 ExpMin= 1.22D-01 ExpMax= 1.28D+05 ExpMxC= 1.24D+03 IAcc=3 IRadAn=         5 AccDes= 0.00D+00
 Harris functional with IExCor=  205 and IRadAn=       5 diagonalized for initial guess.
 HarFok:  IExCor=  205 AccDes= 0.00D+00 IRadAn=         5 IDoV= 1 UseB2=F ITyADJ=14
 ICtDFT=  3500011 ScaDFX=  1.000000  1.000000  1.000000  1.000000
 FoFCou: FMM=F IPFlag=           0 FMFlag=      100000 FMFlg1=           0
         NFxFlg=           0 DoJE=T BraDBF=F KetDBF=T FulRan=T
         wScrn=  0.000000 ICntrl=     500 IOpCl=  0 I1Cent=   200000004 NGrid=           0
         NMat0=    1 NMatS0=      1 NMatT0=    0 NMatD0=    1 NMtDS0=    0 NMtDT0=    0
 Symmetry not used in FoFCou.
 Keep R1 ints in memory in canonical form, NReq=3411371.
 Requested convergence on RMS density matrix=1.00D-08 within 256 cycles.
 Requested convergence on MAX density matrix=1.00D-06.
 Requested convergence on             energy=1.00D-06.
 No special actions if energy rises.
 SCF Done:  E(RHF) =  -574.487509557     A.U. after    8 cycles
            NFock=  8  Conv=0.69D-08     -V/T= 1.9999
 ExpMin= 1.22D-01 ExpMax= 1.28D+05 ExpMxC= 1.24D+03 IAcc=3 IRadAn=         7 AccDes= 0.00D+00
 HarFok:  IExCor=  205 AccDes= 0.00D+00 IRadAn=         7 IDoV=-2 UseB2=F ITyADJ=14
 ICtDFT= 12500011 ScaDFX=  1.000000  1.000000  1.000000  1.000000
 Range of M.O.s used for correlation:     8    66
 NBasis=    66 NAE=    18 NBE=    18 NFC=     7 NFV=     0
 NROrb=     59 NOA=    11 NOB=    11 NVA=    48 NVB=    48
 Fully direct method using O(ONN) memory.
 JobTyp=1 Pass  1:  I=   8 to  18 NPSUse=  1 ParTrn=F ParDer=F DoDerP=T.
 Spin components of T(2) and E(2):
     alpha-alpha T2 =       0.2038189127D-01 E2=     -0.6138713904D-01
     alpha-beta  T2 =       0.1198692729D+00 E2=     -0.3687624794D+00
     beta-beta   T2 =       0.2038189127D-01 E2=     -0.6138713904D-01
 ANorm=    0.1077326810D+01
 E2 =    -0.4915367575D+00 EUMP2 =    -0.57497904631456D+03
          IDoAtm=1111111
          Differentiating once with respect to electric field.
                with respect to dipole field.
          Differentiating once with respect to nuclear coordinates.
 Keep R1 ints in memory in canonical form, NReq=3353780.
          There are     1 degrees of freedom in the 1st order CPHF.  IDoFFX=0 NUNeed=     1.
 LinEq1:  Iter=  0 NonCon=     1 RMS=8.31D-03 Max=1.24D-01 NDo=     1
 AX will form     1 AO Fock derivatives at one time.
 LinEq1:  Iter=  1 NonCon=     1 RMS=1.92D-03 Max=1.82D-02 NDo=     1
 LinEq1:  Iter=  2 NonCon=     1 RMS=6.33D-04 Max=7.38D-03 NDo=     1
 LinEq1:  Iter=  3 NonCon=     1 RMS=2.18D-04 Max=2.09D-03 NDo=     1
 LinEq1:  Iter=  4 NonCon=     1 RMS=7.31D-05 Max=7.57D-04 NDo=     1
 LinEq1:  Iter=  5 NonCon=     1 RMS=1.82D-05 Max=1.71D-04 NDo=     1
 LinEq1:  Iter=  6 NonCon=     1 RMS=4.71D-06 Max=4.03D-05 NDo=     1
 LinEq1:  Iter=  7 NonCon=     1 RMS=1.06D-06 Max=9.37D-06 NDo=     1
 LinEq1:  Iter=  8 NonCon=     1 RMS=2.65D-07 Max=2.57D-06 NDo=     1
 LinEq1:  Iter=  9 NonCon=     1 RMS=6.22D-08 Max=7.02D-07 NDo=     1
 LinEq1:  Iter= 10 NonCon=     1 RMS=1.26D-08 Max=1.19D-07 NDo=     1
 LinEq1:  Iter= 11 NonCon=     1 RMS=1.90D-09 Max=1.29D-08 NDo=     1
 LinEq1:  Iter= 12 NonCon=     1 RMS=3.29D-10 Max=3.08D-09 NDo=     1
 LinEq1:  Iter= 13 NonCon=     0 RMS=7.54D-11 Max=5.95D-10 NDo=     1
 Linear equations converged to 1.000D-10 1.000D-09 after    13 iterations.
 End of Minotr F.D. properties file   721 does not exist.
 End of Minotr F.D. properties file   722 does not exist.
 End of Minotr F.D. properties file   788 does not exist.
 Symmetrizing basis deriv contribution to polar:
 IMax=3 JMax=2 DiffMx= 0.00D+00
 Calling FoFJK, ICntrl=  10002127 FMM=F ISym2X=0 I1Cent= 0 IOpClX= 0 NMat=1 NMatS=1 NMatT=0.
 -------------------------------------------------------------------
 Center     Atomic                   Forces (Hartrees/Bohr)
 Number     Number              X              Y              Z
 -------------------------------------------------------------------
      1       17          -0.000575300    0.000169286    0.000348217
      2        6           0.001408478   -0.000279651   -0.000597623
      3        1           0.000053973   -0.000046379   -0.000051521
      4        1          -0.000121421   -0.000082598   -0.000111401
      5        1           0.000067072   -0.000021010   -0.000077616
      6        8          -0.000813164    0.000265887    0.000523801
      7        1          -0.000019638   -0.000005535   -0.000033858
 -------------------------------------------------------------------
 Cartesian Forces:  Max     0.001408478 RMS     0.000434279
 IRC-IRC-IRC-IRC-IRC-IRC-IRC-IRC-IRC-IRC-IRC-IRC-IRC-IRC-IRC-IRC-IRC-IRC
 Error in corrector energy =           0.0000000064
 Magnitude of corrector gradient =     0.0019738239
 Magnitude of analytic gradient =      0.0019901181
 Magnitude of difference =             0.0000235499
 Angle between gradients (degrees)=    0.4915
 Pt  1 Step number   3 out of a maximum of  20
 Modified Bulirsch-Stoer Extrapolation Cycles:
    EPS =    0.000000333333333
 Maximum DWI energy   std dev =  0.000000719 at pt    42
 Maximum DWI gradient std dev =  0.512069036 at pt     4
 CORRECTOR INTEGRATION CONVERGENCE:
   Recorrection delta-x convergence threshold:    0.001826
   Delta-x Convergence Met
 Point Number:   1          Path Number:   1
   CHANGE IN THE REACTION COORDINATE =    0.19065
   NET REACTION COORDINATE UP TO THIS POINT =    0.19065
  # OF POINTS ALONG THE PATH =   1
  # OF STEPS =   3

 Calculating another point on the path.
 IRC-IRC-IRC-IRC-IRC-IRC-IRC-IRC-IRC-IRC-IRC-IRC-IRC-IRC-IRC-IRC-IRC-IRC
                          Input orientation:                          
 ---------------------------------------------------------------------
 Center     Atomic      Atomic             Coordinates (Angstroms)
 Number     Number       Type             X           Y           Z
 ---------------------------------------------------------------------
      1         17           0       -1.543646   -0.086937    0.025087
      2          6           0        0.433163    0.111950    0.079351
      3          1           0        0.701997   -0.400547    0.999999
      4          1           0        0.810823   -0.342178   -0.832058
      5          1           0        0.569275    1.191493    0.122602
      6          8           0        2.741733    0.127999   -0.142445
      7          1           0        2.807388   -0.796384    0.155445
 ---------------------------------------------------------------------
                    Distance matrix (angstroms):
                    1          2          3          4          5
     1  Cl   0.000000
     2  C    1.987530   0.000000
     3  H    2.468141   1.087436   0.000000
     4  H    2.518605   1.086060   1.836214   0.000000
     5  H    2.471503   1.088949   1.822644   1.822599   0.000000
     6  O    4.294036   2.319256   2.396886   2.103580   2.433279
     7  H    4.410421   2.543188   2.302744   2.273266   2.993641
                    6          7
     6  O    0.000000
     7  H    0.973413   0.000000
 Symmetry turned off by external request.
 Stoichiometry    CH4ClO(1-)
 Framework group  C1[X(CH4ClO)]
 Deg. of freedom    15
 Full point group                 C1      NOp   1
 Rotational constants (GHZ):    109.2625063      2.3208104      2.3131113
 Standard basis: CC-pVDZ (5D, 7F)
    66 basis functions,   165 primitive gaussians,    69 cartesian basis functions
    18 alpha electrons       18 beta electrons
       nuclear repulsion energy        89.1488470177 Hartrees.
 NAtoms=    7 NActive=    7 NUniq=    7 SFac= 1.00D+00 NAtFMM=   60 NAOKFM=F Big=F
 Integral buffers will be    131072 words long.
 Raffenetti 1 integral format.
 Two-electron integral symmetry is turned off.
 One-electron integrals computed using PRISM.
 NBasis=    66 RedAO= T EigKep=  2.01D-02  NBF=    66
 NBsUse=    66 1.00D-06 EigRej= -1.00D+00 NBFU=    66
 Initial guess from the checkpoint file:  "/localscratch/rjackson.18103347.0/Gau-34179.chk"
 B after Tr=     0.000020   -0.000751   -0.001348
         Rot=    1.000000    0.000095   -0.000151    0.000081 Ang=   0.02 deg.
 ExpMin= 1.22D-01 ExpMax= 1.28D+05 ExpMxC= 1.24D+03 IAcc=3 IRadAn=         5 AccDes= 0.00D+00
 Harris functional with IExCor=  205 and IRadAn=       5 diagonalized for initial guess.
 HarFok:  IExCor=  205 AccDes= 0.00D+00 IRadAn=         5 IDoV= 1 UseB2=F ITyADJ=14
 ICtDFT=  3500011 ScaDFX=  1.000000  1.000000  1.000000  1.000000
 FoFCou: FMM=F IPFlag=           0 FMFlag=      100000 FMFlg1=           0
         NFxFlg=           0 DoJE=T BraDBF=F KetDBF=T FulRan=T
         wScrn=  0.000000 ICntrl=     500 IOpCl=  0 I1Cent=   200000004 NGrid=           0
         NMat0=    1 NMatS0=      1 NMatT0=    0 NMatD0=    1 NMtDS0=    0 NMtDT0=    0
 Symmetry not used in FoFCou.
 Keep R1 ints in memory in canonical form, NReq=3411301.
 Requested convergence on RMS density matrix=1.00D-08 within 256 cycles.
 Requested convergence on MAX density matrix=1.00D-06.
 Requested convergence on             energy=1.00D-06.
 No special actions if energy rises.
 SCF Done:  E(RHF) =  -574.487791680     A.U. after   12 cycles
            NFock= 12  Conv=0.31D-08     -V/T= 2.0000
 ExpMin= 1.22D-01 ExpMax= 1.28D+05 ExpMxC= 1.24D+03 IAcc=3 IRadAn=         7 AccDes= 0.00D+00
 HarFok:  IExCor=  205 AccDes= 0.00D+00 IRadAn=         7 IDoV=-2 UseB2=F ITyADJ=14
 ICtDFT= 12500011 ScaDFX=  1.000000  1.000000  1.000000  1.000000
 Range of M.O.s used for correlation:     8    66
 NBasis=    66 NAE=    18 NBE=    18 NFC=     7 NFV=     0
 NROrb=     59 NOA=    11 NOB=    11 NVA=    48 NVB=    48
 Fully direct method using O(ONN) memory.
 JobTyp=1 Pass  1:  I=   8 to  18 NPSUse=  1 ParTrn=F ParDer=F DoDerP=T.
 Spin components of T(2) and E(2):
     alpha-alpha T2 =       0.2038774316D-01 E2=     -0.6135125606D-01
     alpha-beta  T2 =       0.1200652285D+00 E2=     -0.3687326426D+00
     beta-beta   T2 =       0.2038774316D-01 E2=     -0.6135125606D-01
 ANorm=    0.1077423183D+01
 E2 =    -0.4914351547D+00 EUMP2 =    -0.57497922683449D+03
          IDoAtm=1111111
          Differentiating once with respect to electric field.
                with respect to dipole field.
          Differentiating once with respect to nuclear coordinates.
 Keep R1 ints in memory in canonical form, NReq=3353628.
          There are     1 degrees of freedom in the 1st order CPHF.  IDoFFX=0 NUNeed=     1.
 LinEq1:  Iter=  0 NonCon=     1 RMS=8.50D-03 Max=1.28D-01 NDo=     1
 AX will form     1 AO Fock derivatives at one time.
 LinEq1:  Iter=  1 NonCon=     1 RMS=2.01D-03 Max=1.83D-02 NDo=     1
 LinEq1:  Iter=  2 NonCon=     1 RMS=6.64D-04 Max=7.84D-03 NDo=     1
 LinEq1:  Iter=  3 NonCon=     1 RMS=2.32D-04 Max=2.25D-03 NDo=     1
 LinEq1:  Iter=  4 NonCon=     1 RMS=7.77D-05 Max=8.24D-04 NDo=     1
 LinEq1:  Iter=  5 NonCon=     1 RMS=1.92D-05 Max=1.72D-04 NDo=     1
 LinEq1:  Iter=  6 NonCon=     1 RMS=5.04D-06 Max=4.46D-05 NDo=     1
 LinEq1:  Iter=  7 NonCon=     1 RMS=1.13D-06 Max=1.01D-05 NDo=     1
 LinEq1:  Iter=  8 NonCon=     1 RMS=2.85D-07 Max=2.97D-06 NDo=     1
 LinEq1:  Iter=  9 NonCon=     1 RMS=6.86D-08 Max=7.79D-07 NDo=     1
 LinEq1:  Iter= 10 NonCon=     1 RMS=1.34D-08 Max=1.13D-07 NDo=     1
 LinEq1:  Iter= 11 NonCon=     1 RMS=1.99D-09 Max=1.31D-08 NDo=     1
 LinEq1:  Iter= 12 NonCon=     1 RMS=3.36D-10 Max=3.10D-09 NDo=     1
 LinEq1:  Iter= 13 NonCon=     0 RMS=7.49D-11 Max=6.25D-10 NDo=     1
 Linear equations converged to 1.000D-10 1.000D-09 after    13 iterations.
 End of Minotr F.D. properties file   721 does not exist.
 End of Minotr F.D. properties file   722 does not exist.
 End of Minotr F.D. properties file   788 does not exist.
 Symmetrizing basis deriv contribution to polar:
 IMax=3 JMax=2 DiffMx= 0.00D+00
 Calling FoFJK, ICntrl=  10002127 FMM=F ISym2X=0 I1Cent= 0 IOpClX= 0 NMat=1 NMatS=1 NMatT=0.
 -------------------------------------------------------------------
 Center     Atomic                   Forces (Hartrees/Bohr)
 Number     Number              X              Y              Z
 -------------------------------------------------------------------
      1       17          -0.001536162    0.000309778    0.000706788
      2        6           0.004173083   -0.000933492   -0.002084513
      3        1          -0.000069766   -0.000083295   -0.000093049
      4        1          -0.000601362    0.000261074    0.000657410
      5        1          -0.000011878   -0.000053652   -0.000132957
      6        8          -0.001898292    0.000320670    0.001085339
      7        1          -0.000055622    0.000178916   -0.000139018
 -------------------------------------------------------------------
 Cartesian Forces:  Max     0.004173083 RMS     0.001223352
 IRC-IRC-IRC-IRC-IRC-IRC-IRC-IRC-IRC-IRC-IRC-IRC-IRC-IRC-IRC-IRC-IRC-IRC
 Pt  2 Step number   1 out of a maximum of  20
 Modified Bulirsch-Stoer Extrapolation Cycles:
    EPS =    0.000000333333333
 Maximum DWI energy   std dev =  0.000003468 at pt   140
 Maximum DWI gradient std dev =  0.321805912 at pt    36
 CORRECTOR INTEGRATION CONVERGENCE:
   Recorrection delta-x convergence threshold:    0.001826
   Delta-x Convergence NOT Met
 IRC-IRC-IRC-IRC-IRC-IRC-IRC-IRC-IRC-IRC-IRC-IRC-IRC-IRC-IRC-IRC-IRC-IRC
                          Input orientation:                          
 ---------------------------------------------------------------------
 Center     Atomic      Atomic             Coordinates (Angstroms)
 Number     Number       Type             X           Y           Z
 ---------------------------------------------------------------------
      1         17           0       -1.543859   -0.087072    0.024882
      2          6           0        0.434150    0.112359    0.079928
      3          1           0        0.700176   -0.400281    1.001248
      4          1           0        0.811589   -0.341286   -0.830201
      5          1           0        0.567893    1.192119    0.123550
      6          8           0        2.741658    0.127732   -0.142938
      7          1           0        2.807099   -0.796239    0.155553
 ---------------------------------------------------------------------
                    Distance matrix (angstroms):
                    1          2          3          4          5
     1  Cl   0.000000
     2  C    1.988800   0.000000
     3  H    2.467202   1.087382   0.000000
     4  H    2.518716   1.084706   1.835783   0.000000
     5  H    2.470944   1.088886   1.823072   1.822185   0.000000
     6  O    4.294178   2.318297   2.399085   2.101779   2.434994
     7  H    4.410310   2.542077   2.304584   2.271729   2.994768
                    6          7
     6  O    0.000000
     7  H    0.973191   0.000000
 Symmetry turned off by external request.
 Stoichiometry    CH4ClO(1-)
 Framework group  C1[X(CH4ClO)]
 Deg. of freedom    15
 Full point group                 C1      NOp   1
 Rotational constants (GHZ):    109.1775281      2.3205436      2.3128617
 Standard basis: CC-pVDZ (5D, 7F)
    66 basis functions,   165 primitive gaussians,    69 cartesian basis functions
    18 alpha electrons       18 beta electrons
       nuclear repulsion energy        89.1419448687 Hartrees.
 NAtoms=    7 NActive=    7 NUniq=    7 SFac= 1.00D+00 NAtFMM=   60 NAOKFM=F Big=F
 Integral buffers will be    131072 words long.
 Raffenetti 1 integral format.
 Two-electron integral symmetry is turned off.
 One-electron integrals computed using PRISM.
 NBasis=    66 RedAO= T EigKep=  2.01D-02  NBF=    66
 NBsUse=    66 1.00D-06 EigRej= -1.00D+00 NBFU=    66
 Initial guess from the checkpoint file:  "/localscratch/rjackson.18103347.0/Gau-34179.chk"
 B after Tr=    -0.000055   -0.000003    0.000008
         Rot=    1.000000    0.000003    0.000007   -0.000002 Ang=   0.00 deg.
 ExpMin= 1.22D-01 ExpMax= 1.28D+05 ExpMxC= 1.24D+03 IAcc=3 IRadAn=         5 AccDes= 0.00D+00
 Harris functional with IExCor=  205 and IRadAn=       5 diagonalized for initial guess.
 HarFok:  IExCor=  205 AccDes= 0.00D+00 IRadAn=         5 IDoV= 1 UseB2=F ITyADJ=14
 ICtDFT=  3500011 ScaDFX=  1.000000  1.000000  1.000000  1.000000
 FoFCou: FMM=F IPFlag=           0 FMFlag=      100000 FMFlg1=           0
         NFxFlg=           0 DoJE=T BraDBF=F KetDBF=T FulRan=T
         wScrn=  0.000000 ICntrl=     500 IOpCl=  0 I1Cent=   200000004 NGrid=           0
         NMat0=    1 NMatS0=      1 NMatT0=    0 NMatD0=    1 NMtDS0=    0 NMtDT0=    0
 Symmetry not used in FoFCou.
 Keep R1 ints in memory in canonical form, NReq=3411301.
 Requested convergence on RMS density matrix=1.00D-08 within 256 cycles.
 Requested convergence on MAX density matrix=1.00D-06.
 Requested convergence on             energy=1.00D-06.
 No special actions if energy rises.
 SCF Done:  E(RHF) =  -574.487834749     A.U. after    9 cycles
            NFock=  9  Conv=0.69D-08     -V/T= 2.0000
 ExpMin= 1.22D-01 ExpMax= 1.28D+05 ExpMxC= 1.24D+03 IAcc=3 IRadAn=         7 AccDes= 0.00D+00
 HarFok:  IExCor=  205 AccDes= 0.00D+00 IRadAn=         7 IDoV=-2 UseB2=F ITyADJ=14
 ICtDFT= 12500011 ScaDFX=  1.000000  1.000000  1.000000  1.000000
 Range of M.O.s used for correlation:     8    66
 NBasis=    66 NAE=    18 NBE=    18 NFC=     7 NFV=     0
 NROrb=     59 NOA=    11 NOB=    11 NVA=    48 NVB=    48
 Fully direct method using O(ONN) memory.
 JobTyp=1 Pass  1:  I=   8 to  18 NPSUse=  1 ParTrn=F ParDer=F DoDerP=T.
 Spin components of T(2) and E(2):
     alpha-alpha T2 =       0.2038563031D-01 E2=     -0.6134704875D-01
     alpha-beta  T2 =       0.1200509839D+00 E2=     -0.3687020924D+00
     beta-beta   T2 =       0.2038563031D-01 E2=     -0.6134704875D-01
 ANorm=    0.1077414611D+01
 E2 =    -0.4913961899D+00 EUMP2 =    -0.57497923093910D+03
          IDoAtm=1111111
          Differentiating once with respect to electric field.
                with respect to dipole field.
          Differentiating once with respect to nuclear coordinates.
 Keep R1 ints in memory in canonical form, NReq=3353609.
          There are     1 degrees of freedom in the 1st order CPHF.  IDoFFX=0 NUNeed=     1.
 LinEq1:  Iter=  0 NonCon=     1 RMS=8.51D-03 Max=1.28D-01 NDo=     1
 AX will form     1 AO Fock derivatives at one time.
 LinEq1:  Iter=  1 NonCon=     1 RMS=2.01D-03 Max=1.80D-02 NDo=     1
 LinEq1:  Iter=  2 NonCon=     1 RMS=6.66D-04 Max=7.86D-03 NDo=     1
 LinEq1:  Iter=  3 NonCon=     1 RMS=2.33D-04 Max=2.28D-03 NDo=     1
 LinEq1:  Iter=  4 NonCon=     1 RMS=7.79D-05 Max=8.27D-04 NDo=     1
 LinEq1:  Iter=  5 NonCon=     1 RMS=1.92D-05 Max=1.73D-04 NDo=     1
 LinEq1:  Iter=  6 NonCon=     1 RMS=5.05D-06 Max=4.47D-05 NDo=     1
 LinEq1:  Iter=  7 NonCon=     1 RMS=1.13D-06 Max=1.01D-05 NDo=     1
 LinEq1:  Iter=  8 NonCon=     1 RMS=2.86D-07 Max=2.98D-06 NDo=     1
 LinEq1:  Iter=  9 NonCon=     1 RMS=6.87D-08 Max=7.80D-07 NDo=     1
 LinEq1:  Iter= 10 NonCon=     1 RMS=1.34D-08 Max=1.13D-07 NDo=     1
 LinEq1:  Iter= 11 NonCon=     1 RMS=1.99D-09 Max=1.32D-08 NDo=     1
 LinEq1:  Iter= 12 NonCon=     1 RMS=3.36D-10 Max=3.12D-09 NDo=     1
 LinEq1:  Iter= 13 NonCon=     0 RMS=7.51D-11 Max=6.25D-10 NDo=     1
 Linear equations converged to 1.000D-10 1.000D-09 after    13 iterations.
 End of Minotr F.D. properties file   721 does not exist.
 End of Minotr F.D. properties file   722 does not exist.
 End of Minotr F.D. properties file   788 does not exist.
 Symmetrizing basis deriv contribution to polar:
 IMax=3 JMax=2 DiffMx= 0.00D+00
 Calling FoFJK, ICntrl=  10002127 FMM=F ISym2X=0 I1Cent= 0 IOpClX= 0 NMat=1 NMatS=1 NMatT=0.
 -------------------------------------------------------------------
 Center     Atomic                   Forces (Hartrees/Bohr)
 Number     Number              X              Y              Z
 -------------------------------------------------------------------
      1       17          -0.001585805    0.000288055    0.000654051
      2        6           0.003813320   -0.000531615   -0.001222896
      3        1           0.000046279   -0.000077131   -0.000097977
      4        1          -0.000307826   -0.000155265   -0.000179471
      5        1           0.000093085   -0.000044834   -0.000136974
      6        8          -0.002010320    0.000532567    0.001053017
      7        1          -0.000048732   -0.000011778   -0.000069750
 -------------------------------------------------------------------
 Cartesian Forces:  Max     0.003813320 RMS     0.001090750
 IRC-IRC-IRC-IRC-IRC-IRC-IRC-IRC-IRC-IRC-IRC-IRC-IRC-IRC-IRC-IRC-IRC-IRC
 Error in corrector energy =           0.0000006550
 Magnitude of corrector gradient =     0.0047944707
 Magnitude of analytic gradient =      0.0049984467
 Magnitude of difference =             0.0003187860
 Angle between gradients (degrees)=    2.8676
 Pt  2 Step number   2 out of a maximum of  20
 Modified Bulirsch-Stoer Extrapolation Cycles:
    EPS =    0.000000333333333
 Maximum DWI energy   std dev =  0.000003441 at pt   143
 Maximum DWI gradient std dev =  0.345312720 at pt    36
 CORRECTOR INTEGRATION CONVERGENCE:
   Recorrection delta-x convergence threshold:    0.001826
   Delta-x Convergence NOT Met
 IRC-IRC-IRC-IRC-IRC-IRC-IRC-IRC-IRC-IRC-IRC-IRC-IRC-IRC-IRC-IRC-IRC-IRC
                          Input orientation:                          
 ---------------------------------------------------------------------
 Center     Atomic      Atomic             Coordinates (Angstroms)
 Number     Number       Type             X           Y           Z
 ---------------------------------------------------------------------
      1         17           0       -1.543923   -0.087095    0.024854
      2          6           0        0.434399    0.112553    0.080223
      3          1           0        0.699706   -0.400113    1.001684
      4          1           0        0.811592   -0.341073   -0.829906
      5          1           0        0.567461    1.192359    0.124069
      6          8           0        2.741639    0.127698   -0.143001
      7          1           0        2.807186   -0.796149    0.155858
 ---------------------------------------------------------------------
                    Distance matrix (angstroms):
                    1          2          3          4          5
     1  Cl   0.000000
     2  C    1.989142   0.000000
     3  H    2.466992   1.087338   0.000000
     4  H    2.518645   1.084614   1.835954   0.000000
     5  H    2.470788   1.088857   1.823091   1.822385   0.000000
     6  O    4.294223   2.318062   2.399661   2.101587   2.435544
     7  H    4.410450   2.541963   2.305154   2.271832   2.995253
                    6          7
     6  O    0.000000
     7  H    0.973194   0.000000
 Symmetry turned off by external request.
 Stoichiometry    CH4ClO(1-)
 Framework group  C1[X(CH4ClO)]
 Deg. of freedom    15
 Full point group                 C1      NOp   1
 Rotational constants (GHZ):    109.1281884      2.3204501      2.3127822
 Standard basis: CC-pVDZ (5D, 7F)
    66 basis functions,   165 primitive gaussians,    69 cartesian basis functions
    18 alpha electrons       18 beta electrons
       nuclear repulsion energy        89.1384884226 Hartrees.
 NAtoms=    7 NActive=    7 NUniq=    7 SFac= 1.00D+00 NAtFMM=   60 NAOKFM=F Big=F
 Integral buffers will be    131072 words long.
 Raffenetti 1 integral format.
 Two-electron integral symmetry is turned off.
 One-electron integrals computed using PRISM.
 NBasis=    66 RedAO= T EigKep=  2.01D-02  NBF=    66
 NBsUse=    66 1.00D-06 EigRej= -1.00D+00 NBFU=    66
 Initial guess from the checkpoint file:  "/localscratch/rjackson.18103347.0/Gau-34179.chk"
 B after Tr=    -0.000030    0.000064    0.000124
         Rot=    1.000000   -0.000005    0.000009   -0.000005 Ang=  -0.00 deg.
 ExpMin= 1.22D-01 ExpMax= 1.28D+05 ExpMxC= 1.24D+03 IAcc=3 IRadAn=         5 AccDes= 0.00D+00
 Harris functional with IExCor=  205 and IRadAn=       5 diagonalized for initial guess.
 HarFok:  IExCor=  205 AccDes= 0.00D+00 IRadAn=         5 IDoV= 1 UseB2=F ITyADJ=14
 ICtDFT=  3500011 ScaDFX=  1.000000  1.000000  1.000000  1.000000
 FoFCou: FMM=F IPFlag=           0 FMFlag=      100000 FMFlg1=           0
         NFxFlg=           0 DoJE=T BraDBF=F KetDBF=T FulRan=T
         wScrn=  0.000000 ICntrl=     500 IOpCl=  0 I1Cent=   200000004 NGrid=           0
         NMat0=    1 NMatS0=      1 NMatT0=    0 NMatD0=    1 NMtDS0=    0 NMtDT0=    0
 Symmetry not used in FoFCou.
 Keep R1 ints in memory in canonical form, NReq=3411301.
 Requested convergence on RMS density matrix=1.00D-08 within 256 cycles.
 Requested convergence on MAX density matrix=1.00D-06.
 Requested convergence on             energy=1.00D-06.
 No special actions if energy rises.
 SCF Done:  E(RHF) =  -574.487842287     A.U. after    8 cycles
            NFock=  8  Conv=0.67D-08     -V/T= 2.0000
 ExpMin= 1.22D-01 ExpMax= 1.28D+05 ExpMxC= 1.24D+03 IAcc=3 IRadAn=         7 AccDes= 0.00D+00
 HarFok:  IExCor=  205 AccDes= 0.00D+00 IRadAn=         7 IDoV=-2 UseB2=F ITyADJ=14
 ICtDFT= 12500011 ScaDFX=  1.000000  1.000000  1.000000  1.000000
 Range of M.O.s used for correlation:     8    66
 NBasis=    66 NAE=    18 NBE=    18 NFC=     7 NFV=     0
 NROrb=     59 NOA=    11 NOB=    11 NVA=    48 NVB=    48
 Fully direct method using O(ONN) memory.
 JobTyp=1 Pass  1:  I=   8 to  18 NPSUse=  1 ParTrn=F ParDer=F DoDerP=T.
 Spin components of T(2) and E(2):
     alpha-alpha T2 =       0.2038529104D-01 E2=     -0.6134571405D-01
     alpha-beta  T2 =       0.1200511823D+00 E2=     -0.3686975651D+00
     beta-beta   T2 =       0.2038529104D-01 E2=     -0.6134571405D-01
 ANorm=    0.1077414388D+01
 E2 =    -0.4913889932D+00 EUMP2 =    -0.57497923127985D+03
          IDoAtm=1111111
          Differentiating once with respect to electric field.
                with respect to dipole field.
          Differentiating once with respect to nuclear coordinates.
 Keep R1 ints in memory in canonical form, NReq=3353590.
          There are     1 degrees of freedom in the 1st order CPHF.  IDoFFX=0 NUNeed=     1.
 LinEq1:  Iter=  0 NonCon=     1 RMS=8.52D-03 Max=1.28D-01 NDo=     1
 AX will form     1 AO Fock derivatives at one time.
 LinEq1:  Iter=  1 NonCon=     1 RMS=2.01D-03 Max=1.80D-02 NDo=     1
 LinEq1:  Iter=  2 NonCon=     1 RMS=6.66D-04 Max=7.86D-03 NDo=     1
 LinEq1:  Iter=  3 NonCon=     1 RMS=2.33D-04 Max=2.29D-03 NDo=     1
 LinEq1:  Iter=  4 NonCon=     1 RMS=7.80D-05 Max=8.28D-04 NDo=     1
 LinEq1:  Iter=  5 NonCon=     1 RMS=1.92D-05 Max=1.73D-04 NDo=     1
 LinEq1:  Iter=  6 NonCon=     1 RMS=5.06D-06 Max=4.47D-05 NDo=     1
 LinEq1:  Iter=  7 NonCon=     1 RMS=1.13D-06 Max=1.01D-05 NDo=     1
 LinEq1:  Iter=  8 NonCon=     1 RMS=2.86D-07 Max=2.98D-06 NDo=     1
 LinEq1:  Iter=  9 NonCon=     1 RMS=6.88D-08 Max=7.81D-07 NDo=     1
 LinEq1:  Iter= 10 NonCon=     1 RMS=1.35D-08 Max=1.13D-07 NDo=     1
 LinEq1:  Iter= 11 NonCon=     1 RMS=1.99D-09 Max=1.33D-08 NDo=     1
 LinEq1:  Iter= 12 NonCon=     1 RMS=3.37D-10 Max=3.13D-09 NDo=     1
 LinEq1:  Iter= 13 NonCon=     0 RMS=7.51D-11 Max=6.24D-10 NDo=     1
 Linear equations converged to 1.000D-10 1.000D-09 after    13 iterations.
 End of Minotr F.D. properties file   721 does not exist.
 End of Minotr F.D. properties file   722 does not exist.
 End of Minotr F.D. properties file   788 does not exist.
 Symmetrizing basis deriv contribution to polar:
 IMax=3 JMax=2 DiffMx= 0.00D+00
 Calling FoFJK, ICntrl=  10002127 FMM=F ISym2X=0 I1Cent= 0 IOpClX= 0 NMat=1 NMatS=1 NMatT=0.
 -------------------------------------------------------------------
 Center     Atomic                   Forces (Hartrees/Bohr)
 Number     Number              X              Y              Z
 -------------------------------------------------------------------
      1       17          -0.001611956    0.000286641    0.000652973
      2        6           0.003774086   -0.000510949   -0.001189888
      3        1           0.000082484   -0.000099749   -0.000088186
      4        1          -0.000277317   -0.000173424   -0.000217123
      5        1           0.000126552   -0.000033164   -0.000153080
      6        8          -0.002039570    0.000539016    0.001065168
      7        1          -0.000054279   -0.000008371   -0.000069864
 -------------------------------------------------------------------
 Cartesian Forces:  Max     0.003774086 RMS     0.001087584
 IRC-IRC-IRC-IRC-IRC-IRC-IRC-IRC-IRC-IRC-IRC-IRC-IRC-IRC-IRC-IRC-IRC-IRC
 Error in corrector energy =           0.0000000495
 Magnitude of corrector gradient =     0.0049252487
 Magnitude of analytic gradient =      0.0049839375
 Magnitude of difference =             0.0000880006
 Angle between gradients (degrees)=    0.7583
 Pt  2 Step number   3 out of a maximum of  20
 Modified Bulirsch-Stoer Extrapolation Cycles:
    EPS =    0.000000333333333
 Maximum DWI energy   std dev =  0.000003444 at pt   143
 Maximum DWI gradient std dev =  0.355020107 at pt    36
 CORRECTOR INTEGRATION CONVERGENCE:
   Recorrection delta-x convergence threshold:    0.001826
   Delta-x Convergence Met
 Point Number:   2          Path Number:   1
   CHANGE IN THE REACTION COORDINATE =    0.19087
   NET REACTION COORDINATE UP TO THIS POINT =    0.38152
  # OF POINTS ALONG THE PATH =   2
  # OF STEPS =   3

 Maximum number of steps reached.
 Calculation of REVERSE path complete.
 Reaction path calculation complete.
 
 Energies reported relative to the TS energy of        -574.978995
 --------------------------------------------------------------------------
    Summary of reaction path following
 --------------------------------------------------------------------------
                        Energy    RxCoord
   1                   -0.00024  -0.38152
   2                   -0.00005  -0.19065
   3                    0.00000   0.00000
 --------------------------------------------------------------------------
 
 Total number of points:                    2
 Total number of gradient calculations:     7
 Total number of Hessian calculations:      1
 IRC-IRC-IRC-IRC-IRC-IRC-IRC-IRC-IRC-IRC-IRC-IRC-IRC-IRC-IRC-IRC-IRC-IRC
                          Input orientation:                          
 ---------------------------------------------------------------------
 Center     Atomic      Atomic             Coordinates (Angstroms)
 Number     Number       Type             X           Y           Z
 ---------------------------------------------------------------------
      1         17           0       -1.543923   -0.087095    0.024854
      2          6           0        0.434399    0.112553    0.080223
      3          1           0        0.699706   -0.400113    1.001684
      4          1           0        0.811592   -0.341073   -0.829906
      5          1           0        0.567461    1.192359    0.124069
      6          8           0        2.741639    0.127698   -0.143001
      7          1           0        2.807186   -0.796149    0.155858
 ---------------------------------------------------------------------
                    Distance matrix (angstroms):
                    1          2          3          4          5
     1  Cl   0.000000
     2  C    1.989142   0.000000
     3  H    2.466992   1.087338   0.000000
     4  H    2.518645   1.084614   1.835954   0.000000
     5  H    2.470788   1.088857   1.823091   1.822385   0.000000
     6  O    4.294223   2.318062   2.399661   2.101587   2.435544
     7  H    4.410450   2.541963   2.305154   2.271832   2.995253
                    6          7
     6  O    0.000000
     7  H    0.973194   0.000000
 Symmetry turned off by external request.
 Stoichiometry    CH4ClO(1-)
 Framework group  C1[X(CH4ClO)]
 Deg. of freedom    15
 Full point group                 C1      NOp   1
 Rotational constants (GHZ):    109.1281884      2.3204501      2.3127822

 **********************************************************************

            Population analysis using the SCF density.

 **********************************************************************

 Alpha  occ. eigenvalues -- -104.61518 -20.17942 -11.12513 -10.34099  -7.80807
 Alpha  occ. eigenvalues --   -7.80588  -7.80587  -0.91986  -0.89227  -0.72580
 Alpha  occ. eigenvalues --   -0.42561  -0.42105  -0.31356  -0.26081  -0.25204
 Alpha  occ. eigenvalues --   -0.24701  -0.12360  -0.10824
 Alpha virt. eigenvalues --    0.34996   0.38836   0.42107   0.44211   0.47670
 Alpha virt. eigenvalues --    0.76936   0.77466   0.88862   0.95910   0.96142
 Alpha virt. eigenvalues --    0.99257   1.02805   1.03703   1.04926   1.11205
 Alpha virt. eigenvalues --    1.14527   1.17387   1.19713   1.19885   1.20582
 Alpha virt. eigenvalues --    1.35473   1.43518   1.45363   1.58377   1.61299
 Alpha virt. eigenvalues --    1.65463   1.72812   1.81201   1.84677   1.87250
 Alpha virt. eigenvalues --    2.01059   2.05604   2.13753   2.19755   2.21622
 Alpha virt. eigenvalues --    2.28199   2.49678   2.60632   2.62890   2.75923
 Alpha virt. eigenvalues --    2.94268   2.95526   2.96703   3.35507   3.45214
 Alpha virt. eigenvalues --    3.66268   3.66973   4.39598
          Condensed to atoms (all electrons):
               1          2          3          4          5          6
     1  Cl  17.525086   0.081130  -0.033361  -0.030193  -0.034472   0.002550
     2  C    0.081130   4.600964   0.416064   0.395908   0.422155   0.034103
     3  H   -0.033361   0.416064   0.584489  -0.025320  -0.018131   0.008344
     4  H   -0.030193   0.395908  -0.025320   0.548530  -0.017369   0.031866
     5  H   -0.034472   0.422155  -0.018131  -0.017369   0.564414   0.003633
     6  O    0.002550   0.034103   0.008344   0.031866   0.003633   8.466176
     7  H   -0.000713  -0.014452   0.000996  -0.005065  -0.001313   0.296863
               7
     1  Cl  -0.000713
     2  C   -0.014452
     3  H    0.000996
     4  H   -0.005065
     5  H   -0.001313
     6  O    0.296863
     7  H    0.683891
 Mulliken charges:
               1
     1  Cl  -0.510028
     2  C    0.064128
     3  H    0.066919
     4  H    0.101643
     5  H    0.081081
     6  O   -0.843536
     7  H    0.039793
 Sum of Mulliken charges =  -1.00000
 Mulliken charges with hydrogens summed into heavy atoms:
               1
     1  Cl  -0.510028
     2  C    0.313771
     6  O   -0.803743
 APT charges:
               1
     1  Cl  -0.410514
     2  C   -0.571326
     3  H    0.229678
     4  H    0.195163
     5  H    0.267109
     6  O   -0.817079
     7  H    0.106968
 Sum of APT charges =  -1.00000
 APT charges with hydrogens summed into heavy atoms:
               1
     1  Cl  -0.410514
     2  C    0.120625
     6  O   -0.710111
 Electronic spatial extent (au):  <R**2>=            502.1073
 Charge=             -1.0000 electrons
 Dipole moment (field-independent basis, Debye):
    X=             -5.8079    Y=             -0.9641    Z=              0.8757  Tot=              5.9521
 Quadrupole moment (field-independent basis, Debye-Ang):
   XX=            -64.2364   YY=            -26.9709   ZZ=            -28.1720
   XY=             -4.3010   XZ=              2.5309   YZ=             -0.2135
 Traceless Quadrupole moment (field-independent basis, Debye-Ang):
   XX=            -24.4433   YY=             12.8222   ZZ=             11.6211
   XY=             -4.3010   XZ=              2.5309   YZ=             -0.2135
 Octapole moment (field-independent basis, Debye-Ang**2):
  XXX=            -83.7987  YYY=              1.1044  ZZZ=             -0.2377  XYY=              1.1203
  XXY=            -11.0821  XXZ=              6.2862  XZZ=             -1.9928  YZZ=             -0.5705
  YYZ=             -0.0078  XYZ=             -0.6037
 Hexadecapole moment (field-independent basis, Debye-Ang**3):
 XXXX=           -813.8328 YYYY=            -36.9692 ZZZZ=            -35.9474 XXXY=            -40.2717
 XXXZ=             26.8903 YYYX=             -9.1242 YYYZ=              0.3194 ZZZX=              8.0586
 ZZZY=              0.1682 XXYY=            -95.7091 XXZZ=           -104.1251 YYZZ=            -12.5765
 XXYZ=             -1.4825 YYXZ=              2.7186 ZZXY=             -3.4494
 N-N= 8.913848842261D+01 E-N=-1.553022964666D+03  KE= 5.745110697392D+02
  Exact polarizability:   0.000   0.000   0.000   0.000   0.000   0.000
 Approx polarizability:  41.284   1.072  21.585  -0.067  -1.182  18.394

 This type of calculation cannot be archived.


 Mondays are the potholes in the road of life.
                                -- Tom Wilson
 Job cpu time:       0 days  0 hours  1 minutes 30.0 seconds.
 File lengths (MBytes):  RWF=    214 Int=      0 D2E=      0 Chk=      2 Scr=      1
 Normal termination of Gaussian 09 at Tue Mar 12 02:12:40 2019.
