 Entering Gaussian System, Link 0=g09
 Initial command:
 /opt/software/gaussian/g09.e01/l1.exe "/localscratch/rjackson.12297310.0/Gau-2584.inp" -scrdir="/localscratch/rjackson.12297310.0/"
 Entering Link 1 = /opt/software/gaussian/g09.e01/l1.exe PID=      2585.
  
 Copyright (c) 1988,1990,1992,1993,1995,1998,2003,2009,2015,
            Gaussian, Inc.  All Rights Reserved.
  
 This is part of the Gaussian(R) 09 program.  It is based on
 the Gaussian(R) 03 system (copyright 2003, Gaussian, Inc.),
 the Gaussian(R) 98 system (copyright 1998, Gaussian, Inc.),
 the Gaussian(R) 94 system (copyright 1995, Gaussian, Inc.),
 the Gaussian 92(TM) system (copyright 1992, Gaussian, Inc.),
 the Gaussian 90(TM) system (copyright 1990, Gaussian, Inc.),
 the Gaussian 88(TM) system (copyright 1988, Gaussian, Inc.),
 the Gaussian 86(TM) system (copyright 1986, Carnegie Mellon
 University), and the Gaussian 82(TM) system (copyright 1983,
 Carnegie Mellon University). Gaussian is a federally registered
 trademark of Gaussian, Inc.
  
 This software contains proprietary and confidential information,
 including trade secrets, belonging to Gaussian, Inc.
  
 This software is provided under written license and may be
 used, copied, transmitted, or stored only in accord with that
 written license.
  
 The following legend is applicable only to US Government
 contracts under FAR:
  
                    RESTRICTED RIGHTS LEGEND
  
 Use, reproduction and disclosure by the US Government is
 subject to restrictions as set forth in subparagraphs (a)
 and (c) of the Commercial Computer Software - Restricted
 Rights clause in FAR 52.227-19.
  
 Gaussian, Inc.
 340 Quinnipiac St., Bldg. 40, Wallingford CT 06492
  
  
 ---------------------------------------------------------------
 Warning -- This program may not be used in any manner that
 competes with the business of Gaussian, Inc. or will provide
 assistance to any competitor of Gaussian, Inc.  The licensee
 of this program is prohibited from giving any competitor of
 Gaussian, Inc. access to this program.  By using this program,
 the user acknowledges that Gaussian, Inc. is engaged in the
 business of creating and licensing software in the field of
 computational chemistry and represents and warrants to the
 licensee that it is not a competitor of Gaussian, Inc. and that
 it will not use this program in any manner prohibited above.
 ---------------------------------------------------------------
  

 Cite this work as:
 Gaussian 09, Revision E.01,
 M. J. Frisch, G. W. Trucks, H. B. Schlegel, G. E. Scuseria, 
 M. A. Robb, J. R. Cheeseman, G. Scalmani, V. Barone, B. Mennucci, 
 G. A. Petersson, H. Nakatsuji, M. Caricato, X. Li, H. P. Hratchian, 
 A. F. Izmaylov, J. Bloino, G. Zheng, J. L. Sonnenberg, M. Hada, 
 M. Ehara, K. Toyota, R. Fukuda, J. Hasegawa, M. Ishida, T. Nakajima, 
 Y. Honda, O. Kitao, H. Nakai, T. Vreven, J. A. Montgomery, Jr., 
 J. E. Peralta, F. Ogliaro, M. Bearpark, J. J. Heyd, E. Brothers, 
 K. N. Kudin, V. N. Staroverov, T. Keith, R. Kobayashi, J. Normand, 
 K. Raghavachari, A. Rendell, J. C. Burant, S. S. Iyengar, J. Tomasi, 
 M. Cossi, N. Rega, J. M. Millam, M. Klene, J. E. Knox, J. B. Cross, 
 V. Bakken, C. Adamo, J. Jaramillo, R. Gomperts, R. E. Stratmann, 
 O. Yazyev, A. J. Austin, R. Cammi, C. Pomelli, J. W. Ochterski, 
 R. L. Martin, K. Morokuma, V. G. Zakrzewski, G. A. Voth, 
 P. Salvador, J. J. Dannenberg, S. Dapprich, A. D. Daniels, 
 O. Farkas, J. B. Foresman, J. V. Ortiz, J. Cioslowski, 
 and D. J. Fox, Gaussian, Inc., Wallingford CT, 2013.
 
 ******************************************
 Gaussian 09:  EM64L-G09RevE.01 30-Nov-2015
                 5-Mar-2019 
 ******************************************
 ----------------------------------------------------------------------
 # mp2/cc-pVDZ irc(forward, calcfc, maxpoints=64, stepsize=5, tight) in
 tegral(grid=superfine) scf(maxcyc=256)
 ----------------------------------------------------------------------
 1/7=10,10=4,18=10,22=1,38=1,39=5,42=64,44=3/1,23;
 2/12=2,17=6,18=5,29=1,40=1/2;
 3/5=16,11=9,16=1,25=1,30=1,71=2,75=-7,140=1/1,2,3;
 4//1;
 5/5=2,7=256,38=5/2;
 8/6=3,8=1,10=1,19=11,30=-1/1;
 9/15=3,16=-3/6;
 11/6=1,8=1,15=11,17=12,24=-1,27=1,28=-2,29=300,32=6,42=3/1,2,10;
 10/6=2,21=1/2;
 8/6=4,8=1,10=1,19=11,30=-1/11,4;
 10/5=1,20=4/2;
 11/12=2,14=11,16=1,17=2,28=-2,42=3/2,10,12;
 6/7=2,8=2,9=2,10=2/1;
 7/10=1,12=2,25=1,44=2/1,2,3,16;
 1/7=10,10=4,18=10,22=1,39=5,42=64,44=3/23(2);
 2/29=1/2;
 99/5=20/99;
 2/29=1/2;
 3/5=16,11=9,16=1,25=1,30=1,71=2,75=-7,140=1/1,2,3;
 4/5=5,16=3,69=1/1;
 5/5=2,7=256,38=5/2;
 8/6=3,8=1,10=1,19=11,30=-1/1;
 9/15=3,16=-3/6;
 11/6=1,8=1,15=11,17=12,24=-1,27=1,28=-2,29=300,32=6,42=3/1,2,10;
 10/6=2,21=1/2;
 8/6=4,8=1,10=1,19=11,30=-1/11,4;
 10/5=1,20=4/2;
 11/12=2,14=11,16=1,17=2,28=-2,42=3/2,10,12;
 7/10=1,12=2,25=1,44=2/1,2,3,16;
 1/7=10,18=10,22=1,39=5,42=64,44=3/23(-12);
 2/29=1/2;
 6/7=2,8=2,9=2,10=2/1;
 99/5=20/99;
 ------------------------
 OH-chloromethane_product
 ------------------------
 Symbolic Z-matrix:
 Charge = -1 Multiplicity = 1
 Cl                   -1.68338  -0.01709   0.00001 
 C                     1.10506   0.00479  -0.00001 
 H                     0.70716  -0.50493   0.88999 
 H                     0.70715  -0.50501  -0.88995 
 H                     0.71207   1.02471  -0.00005 
 O                     2.53849   0.08538  -0.00002 
 H                     2.83211  -0.83346   0.00003 
 
 IRC-IRC-IRC-IRC-IRC-IRC-IRC-IRC-IRC-IRC-IRC-IRC-IRC-IRC-IRC-IRC-IRC-IRC
 ------------------------------------------------------------------------
 INPUT DATA FOR L123
 ------------------------------------------------------------------------
 GENERAL PARAMETERS:
 Rxn path following direction = Forward
 Maximum points per path      =  64
 Step size                    =   0.050 bohr
 Integration scheme           = HPC                                 
    Redo corrector integration= Yes                                 
    DWI Weight Power          =  2
    DWI will use Hessian update vectors when possible.
    Max correction cycles     =  20
 Initial Hessian              = CalcFC
 Hessian evaluation           = All updating
 Hessian updating method      = Bofill                              
 ------------------------------------------------------------------------
 IRC-IRC-IRC-IRC-IRC-IRC-IRC-IRC-IRC-IRC-IRC-IRC-IRC-IRC-IRC-IRC-IRC-IRC
                          Input orientation:                          
 ---------------------------------------------------------------------
 Center     Atomic      Atomic             Coordinates (Angstroms)
 Number     Number       Type             X           Y           Z
 ---------------------------------------------------------------------
      1         17           0       -1.683375   -0.017091    0.000009
      2          6           0        1.105064    0.004787   -0.000005
      3          1           0        0.707155   -0.504930    0.889994
      4          1           0        0.707147   -0.505012   -0.889954
      5          1           0        0.712067    1.024709   -0.000050
      6          8           0        2.538493    0.085378   -0.000016
      7          1           0        2.832108   -0.833455    0.000025
 ---------------------------------------------------------------------
                    Distance matrix (angstroms):
                    1          2          3          4          5
     1  Cl   0.000000
     2  C    2.788525   0.000000
     3  H    2.597055   1.100110   0.000000
     4  H    2.597055   1.100110   1.779948   0.000000
     5  H    2.612181   1.093018   1.769745   1.769746   0.000000
     6  O    4.223111   1.435693   2.119995   2.119995   2.053820
     7  H    4.588686   1.919721   2.327101   2.327100   2.819104
                    6          7
     6  O    0.000000
     7  H    0.964606   0.000000
 Symmetry turned off by external request.
 Stoichiometry    CH4ClO(1-)
 Framework group  C1[X(CH4ClO)]
 Deg. of freedom    15
 Full point group                 C1      NOp   1
 Rotational constants (GHZ):    127.1450395      2.2162097      2.2086374
 Standard basis: CC-pVDZ (5D, 7F)
    66 basis functions,   165 primitive gaussians,    69 cartesian basis functions
    18 alpha electrons       18 beta electrons
       nuclear repulsion energy        88.7350226733 Hartrees.
 NAtoms=    7 NActive=    7 NUniq=    7 SFac= 1.00D+00 NAtFMM=   60 NAOKFM=F Big=F
 Integral buffers will be    131072 words long.
 Raffenetti 1 integral format.
 Two-electron integral symmetry is turned off.
 One-electron integrals computed using PRISM.
 NBasis=    66 RedAO= T EigKep=  1.54D-02  NBF=    66
 NBsUse=    66 1.00D-06 EigRej= -1.00D+00 NBFU=    66
 ExpMin= 1.22D-01 ExpMax= 1.28D+05 ExpMxC= 1.24D+03 IAcc=3 IRadAn=         7 AccDes= 0.00D+00
 Harris functional with IExCor=  205 and IRadAn=       7 diagonalized for initial guess.
 HarFok:  IExCor=  205 AccDes= 0.00D+00 IRadAn=         7 IDoV= 1 UseB2=F ITyADJ=14
 ICtDFT=  3500011 ScaDFX=  1.000000  1.000000  1.000000  1.000000
 FoFCou: FMM=F IPFlag=           0 FMFlag=      100000 FMFlg1=           0
         NFxFlg=           0 DoJE=T BraDBF=F KetDBF=T FulRan=T
         wScrn=  0.000000 ICntrl=     500 IOpCl=  0 I1Cent=   200000004 NGrid=           0
         NMat0=    1 NMatS0=      1 NMatT0=    0 NMatD0=    1 NMtDS0=    0 NMtDT0=    0
 Symmetry not used in FoFCou.
 Keep R1 ints in memory in canonical form, NReq=3411288.
 Requested convergence on RMS density matrix=1.00D-08 within 256 cycles.
 Requested convergence on MAX density matrix=1.00D-06.
 Requested convergence on             energy=1.00D-06.
 No special actions if energy rises.
 SCF Done:  E(RHF) =  -574.588744206     A.U. after   11 cycles
            NFock= 11  Conv=0.84D-08     -V/T= 2.0000
 ExpMin= 1.22D-01 ExpMax= 1.28D+05 ExpMxC= 1.24D+03 IAcc=3 IRadAn=         7 AccDes= 0.00D+00
 HarFok:  IExCor=  205 AccDes= 0.00D+00 IRadAn=         7 IDoV=-2 UseB2=F ITyADJ=14
 ICtDFT= 12500011 ScaDFX=  1.000000  1.000000  1.000000  1.000000
 Range of M.O.s used for correlation:     8    66
 NBasis=    66 NAE=    18 NBE=    18 NFC=     7 NFV=     0
 NROrb=     59 NOA=    11 NOB=    11 NVA=    48 NVB=    48
 Disk-based method using ON**2 memory for 11 occupieds at a time.
 Permanent disk used for amplitudes=      919080 words.
 Estimated scratch disk usage=     7102772 words.
 Actual    scratch disk usage=     7102772 words.
 JobTyp=1 Pass  1:  I=   8 to  18 NPSUse=  1 ParTrn=F ParDer=F DoDerP=T.
 (rs|ai) integrals will be sorted in core.
 Spin components of T(2) and E(2):
     alpha-alpha T2 =       0.1848965018D-01 E2=     -0.5962620863D-01
     alpha-beta  T2 =       0.1102477053D+00 E2=     -0.3604258060D+00
     beta-beta   T2 =       0.1848965018D-01 E2=     -0.5962620863D-01
 ANorm=    0.1071086834D+01
 E2 =    -0.4796782233D+00 EUMP2 =    -0.57506842242918D+03
 G2DrvN: will do     8 centers at a time, making    1 passes.
 Calling FoFCou, ICntrl=  3107 FMM=F I1Cent=   0 AccDes= 0.00D+00.
 End of G2Drv F.D. properties file   721 does not exist.
 End of G2Drv F.D. properties file   722 does not exist.
 End of G2Drv F.D. properties file   788 does not exist.
          IDoAtm=1111111
          Differentiating once with respect to electric field.
                with respect to dipole field.
          Differentiating once with respect to nuclear coordinates.
 Keep R1 ints in memory in canonical form, NReq=3351733.
          There are    24 degrees of freedom in the 1st order CPHF.  IDoFFX=6 NUNeed=    24.
     21 vectors produced by pass  0 Test12= 3.60D-15 4.17D-09 XBig12= 6.84D+00 1.32D+00.
 AX will form    21 AO Fock derivatives at one time.
     21 vectors produced by pass  1 Test12= 3.60D-15 4.17D-09 XBig12= 2.19D-01 1.40D-01.
     21 vectors produced by pass  2 Test12= 3.60D-15 4.17D-09 XBig12= 8.49D-03 2.26D-02.
     21 vectors produced by pass  3 Test12= 3.60D-15 4.17D-09 XBig12= 1.20D-04 2.69D-03.
     21 vectors produced by pass  4 Test12= 3.60D-15 4.17D-09 XBig12= 9.06D-07 2.51D-04.
     21 vectors produced by pass  5 Test12= 3.60D-15 4.17D-09 XBig12= 5.50D-09 1.56D-05.
     12 vectors produced by pass  6 Test12= 3.60D-15 4.17D-09 XBig12= 2.87D-11 1.16D-06.
      3 vectors produced by pass  7 Test12= 3.60D-15 4.17D-09 XBig12= 1.53D-13 7.04D-08.
      1 vectors produced by pass  8 Test12= 3.60D-15 4.17D-09 XBig12= 6.94D-16 4.81D-09.
 InvSVY:  IOpt=1 It=  1 EMax= 1.78D-15
 Solved reduced A of dimension   142 with    24 vectors.
 End of Minotr F.D. properties file   721 does not exist.
 End of Minotr F.D. properties file   722 does not exist.
 End of Minotr F.D. properties file   788 does not exist.
 MDV=    33554432.
 Form MO integral derivatives with frozen-active canonical formalism.
 Discarding MO integrals.
 Reordered first order wavefunction length =      1492992
 In DefCFB: NBatch=  1 ICI= 18 ICA= 48 LFMax= 18
            Large arrays: LIAPS=    15738624 LIARS=     7928928 words.
 Semi-Direct transformation.
 ModeAB=           4 MOrb=            18 LenV=      33288618
 LASXX=      2037645 LTotXX=     2037645 LenRXX=     4178286
 LTotAB=     2140641 MaxLAS=     2867832 LenRXY=           0
 NonZer=     6215931 LenScr=    10097152 LnRSAI=     2867832
 LnScr1=     5017600 LExtra=           0 Total=     22160870
 MaxDsk=          -1 SrtSym=           T ITran=            4
 JobTyp=0 Pass  1:  I=   1 to  18.
 (rs|ai) integrals will be sorted in core.
 Spin components of T(2) and E(2):
     alpha-alpha T2 =       0.1848965018D-01 E2=     -0.5962620863D-01
     alpha-beta  T2 =       0.1102477053D+00 E2=     -0.3604258060D+00
     beta-beta   T2 =       0.1848965018D-01 E2=     -0.5962620863D-01
 ANorm=    0.1514745527D+01
 E2 =    -0.4796782233D+00 EUMP2 =    -0.57506842242918D+03
          IDoAtm=1111111
          Differentiating once with respect to electric field.
                with respect to dipole field.
          Differentiating once with respect to nuclear coordinates.
          There are     1 degrees of freedom in the 1st order CPHF.  IDoFFX=0 NUNeed=     1.
 LinEq1:  Iter=  0 NonCon=     1 RMS=3.70D-03 Max=3.44D-02 NDo=     1
 LinEq1:  Iter=  1 NonCon=     1 RMS=8.38D-04 Max=6.56D-03 NDo=     1
 LinEq1:  Iter=  2 NonCon=     1 RMS=1.97D-04 Max=1.30D-03 NDo=     1
 LinEq1:  Iter=  3 NonCon=     1 RMS=7.12D-05 Max=6.85D-04 NDo=     1
 LinEq1:  Iter=  4 NonCon=     1 RMS=1.85D-05 Max=1.55D-04 NDo=     1
 LinEq1:  Iter=  5 NonCon=     1 RMS=4.19D-06 Max=4.62D-05 NDo=     1
 LinEq1:  Iter=  6 NonCon=     1 RMS=8.92D-07 Max=9.20D-06 NDo=     1
 LinEq1:  Iter=  7 NonCon=     1 RMS=1.60D-07 Max=1.20D-06 NDo=     1
 LinEq1:  Iter=  8 NonCon=     1 RMS=2.94D-08 Max=2.10D-07 NDo=     1
 LinEq1:  Iter=  9 NonCon=     1 RMS=4.23D-09 Max=3.93D-08 NDo=     1
 LinEq1:  Iter= 10 NonCon=     1 RMS=8.62D-10 Max=9.88D-09 NDo=     1
 LinEq1:  Iter= 11 NonCon=     1 RMS=1.66D-10 Max=1.45D-09 NDo=     1
 LinEq1:  Iter= 12 NonCon=     0 RMS=3.05D-11 Max=2.51D-10 NDo=     1
 Linear equations converged to 1.000D-10 1.000D-09 after    12 iterations.
 End of Minotr F.D. properties file   721 does not exist.
 End of Minotr F.D. properties file   722 does not exist.
 End of Minotr F.D. properties file   788 does not exist.
 Symmetrizing basis deriv contribution to polar:
 IMax=3 JMax=2 DiffMx= 0.00D+00
 G2DrvN: will do     8 centers at a time, making    1 passes.
 Calling FoFCou, ICntrl=  3107 FMM=F I1Cent=   0 AccDes= 0.00D+00.
 End of G2Drv F.D. properties file   721 does not exist.
 End of G2Drv F.D. properties file   722 does not exist.
 End of G2Drv F.D. properties file   788 does not exist.
 R2 and R3 integrals will be kept in memory, NReq=     6654640.
 DD1Dir will call FoFMem   1 times, MxPair=       342
 NAB=   171 NAA=     0 NBB=     0.
 Discarding MO integrals.

 **********************************************************************

            Population analysis using the SCF density.

 **********************************************************************

 Alpha  occ. eigenvalues -- -104.47554 -20.39650 -11.09342 -10.19827  -7.66455
 Alpha  occ. eigenvalues --   -7.66438  -7.66438  -1.19203  -0.75029  -0.70799
 Alpha  occ. eigenvalues --   -0.51769  -0.43979  -0.41694  -0.33122  -0.28190
 Alpha  occ. eigenvalues --   -0.13382  -0.13339  -0.13150
 Alpha virt. eigenvalues --    0.32391   0.39754   0.44742   0.44812   0.58228
 Alpha virt. eigenvalues --    0.80171   0.81492   0.91176   0.96899   1.03548
 Alpha virt. eigenvalues --    1.05069   1.07071   1.07265   1.08267   1.09774
 Alpha virt. eigenvalues --    1.22973   1.26766   1.28390   1.30389   1.32351
 Alpha virt. eigenvalues --    1.32398   1.34869   1.36197   1.43427   1.49289
 Alpha virt. eigenvalues --    1.58516   1.67759   1.72735   1.82615   1.86455
 Alpha virt. eigenvalues --    2.05875   2.10557   2.12155   2.16340   2.22834
 Alpha virt. eigenvalues --    2.30735   2.50060   2.54284   2.63454   2.66322
 Alpha virt. eigenvalues --    2.92477   2.93728   2.96093   3.46270   3.52766
 Alpha virt. eigenvalues --    3.60753   3.74446   4.22946
          Condensed to atoms (all electrons):
               1          2          3          4          5          6
     1  Cl  17.965880  -0.047534   0.008781   0.008781   0.006795   0.001280
     2  C   -0.047534   4.402109   0.420168   0.420168   0.419991   0.272792
     3  H    0.008781   0.420168   0.646526  -0.035531  -0.027108  -0.029570
     4  H    0.008781   0.420168  -0.035531   0.646526  -0.027108  -0.029570
     5  H    0.006795   0.419991  -0.027108  -0.027108   0.600800  -0.022320
     6  O    0.001280   0.272792  -0.029570  -0.029570  -0.022320   7.894349
     7  H   -0.000340  -0.050128  -0.005307  -0.005307   0.007326   0.351448
               7
     1  Cl  -0.000340
     2  C   -0.050128
     3  H   -0.005307
     4  H   -0.005307
     5  H    0.007326
     6  O    0.351448
     7  H    0.568396
 Mulliken charges:
               1
     1  Cl  -0.943644
     2  C    0.162435
     3  H    0.022042
     4  H    0.022042
     5  H    0.041624
     6  O   -0.438410
     7  H    0.133911
 Sum of Mulliken charges =  -1.00000
 Mulliken charges with hydrogens summed into heavy atoms:
               1
     1  Cl  -0.943644
     2  C    0.248142
     6  O   -0.304498
 APT charges:
               1
     1  Cl  -0.954829
     2  C    0.496996
     3  H   -0.037176
     4  H   -0.037176
     5  H    0.005169
     6  O   -0.667861
     7  H    0.194877
 Sum of APT charges =  -1.00000
 APT charges with hydrogens summed into heavy atoms:
               1
     1  Cl  -0.954829
     2  C    0.427813
     6  O   -0.472984
 Electronic spatial extent (au):  <R**2>=            508.4843
 Charge=             -1.0000 electrons
 Dipole moment (field-independent basis, Debye):
    X=              5.5607    Y=             -1.3809    Z=              0.0000  Tot=              5.7296
 Quadrupole moment (field-independent basis, Debye-Ang):
   XX=            -48.9562   YY=            -27.2692   ZZ=            -29.0012
   XY=             -4.7642   XZ=              0.0003   YZ=             -0.0001
 Traceless Quadrupole moment (field-independent basis, Debye-Ang):
   XX=            -13.8807   YY=              7.8063   ZZ=              6.0743
   XY=             -4.7642   XZ=              0.0003   YZ=             -0.0001
 Octapole moment (field-independent basis, Debye-Ang**2):
  XXX=             13.1723  YYY=              0.1656  ZZZ=             -0.0000  XYY=              6.4876
  XXY=            -13.2099  XXZ=              0.0006  XZZ=              1.8751  YZZ=             -0.2050
  YYZ=             -0.0001  XYZ=             -0.0002
 Hexadecapole moment (field-independent basis, Debye-Ang**3):
 XXXX=           -654.3840 YYYY=            -37.2189 ZZZZ=            -37.1937 XXXY=            -41.5928
 XXXZ=              0.0035 YYYX=             -4.4315 YYYZ=             -0.0000 ZZZX=              0.0014
 ZZZY=              0.0000 XXYY=            -92.8299 XXZZ=           -105.1526 YYZZ=            -12.6675
 XXYZ=             -0.0004 YYXZ=              0.0005 ZZXY=             -0.7570
 N-N= 8.873502267325D+01 E-N=-1.552868261473D+03  KE= 5.746078731994D+02
  Exact polarizability:  34.467  -1.429  22.377  -0.000  -0.000  20.169
 Approx polarizability:  25.190  -0.680  20.734  -0.000  -0.000  18.390
 Calling FoFJK, ICntrl=  10100127 FMM=F ISym2X=0 I1Cent= 0 IOpClX= 0 NMat=1 NMatS=1 NMatT=0.
 -------------------------------------------------------------------
 Center     Atomic                   Forces (Hartrees/Bohr)
 Number     Number              X              Y              Z
 -------------------------------------------------------------------
      1       17          -0.020646683   -0.000634554    0.000000131
      2        6           0.008048477    0.000330301   -0.000000385
      3        1           0.000584695    0.000180152   -0.000093447
      4        1           0.000584701    0.000180324    0.000093693
      5        1           0.000446423    0.000514876   -0.000000041
      6        8           0.010325040   -0.000526824    0.000000052
      7        1           0.000657347   -0.000044274   -0.000000003
 -------------------------------------------------------------------
 Cartesian Forces:  Max     0.020646683 RMS     0.005345777
 IRC-IRC-IRC-IRC-IRC-IRC-IRC-IRC-IRC-IRC-IRC-IRC-IRC-IRC-IRC-IRC-IRC-IRC
          ******** Start new reaction path calculation ********
 WARNING: NO IMAGINARY FREQUENCIES AT TS!
 Supplied step size of   0.0500 bohr.
    Integration on MW PES will use step size of   0.0798 sqrt(amu)*bohr.
 Point Number:   0          Path Number:   1
 Calculating another point on the path.
 IRC-IRC-IRC-IRC-IRC-IRC-IRC-IRC-IRC-IRC-IRC-IRC-IRC-IRC-IRC-IRC-IRC-IRC
                          Input orientation:                          
 ---------------------------------------------------------------------
 Center     Atomic      Atomic             Coordinates (Angstroms)
 Number     Number       Type             X           Y           Z
 ---------------------------------------------------------------------
      1         17           0       -1.683295   -0.015581    0.000009
      2          6           0        1.105261   -0.003227   -0.000004
      3          1           0        0.711610   -0.516157    0.890220
      4          1           0        0.711600   -0.516239   -0.890177
      5          1           0        0.703557    1.013109   -0.000049
      6          8           0        2.537926    0.089766   -0.000017
      7          1           0        2.840201   -0.826316    0.000023
 ---------------------------------------------------------------------
                    Distance matrix (angstroms):
                    1          2          3          4          5
     1  Cl   0.000000
     2  C    2.788583   0.000000
     3  H    2.603578   1.100253   0.000000
     4  H    2.603576   1.100254   1.780397   0.000000
     5  H    2.599089   1.092842   1.769547   1.769547   0.000000
     6  O    4.222535   1.435680   2.120164   2.120164   2.053648
     7  H    4.595574   1.920284   2.327993   2.327992   2.819349
                    6          7
     6  O    0.000000
     7  H    0.964664   0.000000
 Symmetry turned off by external request.
 Stoichiometry    CH4ClO(1-)
 Framework group  C1[X(CH4ClO)]
 Deg. of freedom    15
 Full point group                 C1      NOp   1
 Rotational constants (GHZ):    127.1652178      2.2162429      2.2086920
 Standard basis: CC-pVDZ (5D, 7F)
    66 basis functions,   165 primitive gaussians,    69 cartesian basis functions
    18 alpha electrons       18 beta electrons
       nuclear repulsion energy        88.7327788033 Hartrees.
 NAtoms=    7 NActive=    7 NUniq=    7 SFac= 1.00D+00 NAtFMM=   60 NAOKFM=F Big=F
 Integral buffers will be    131072 words long.
 Raffenetti 1 integral format.
 Two-electron integral symmetry is turned off.
 One-electron integrals computed using PRISM.
 NBasis=    66 RedAO= T EigKep=  1.54D-02  NBF=    66
 NBsUse=    66 1.00D-06 EigRej= -1.00D+00 NBFU=    66
 Initial guess from the checkpoint file:  "/localscratch/rjackson.12297310.0/Gau-2585.chk"
 B after Tr=     0.000349   -0.000784   -0.000000
         Rot=    1.000000   -0.000000   -0.000000   -0.000044 Ang=  -0.01 deg.
 ExpMin= 1.22D-01 ExpMax= 1.28D+05 ExpMxC= 1.24D+03 IAcc=3 IRadAn=         5 AccDes= 0.00D+00
 Harris functional with IExCor=  205 and IRadAn=       5 diagonalized for initial guess.
 HarFok:  IExCor=  205 AccDes= 0.00D+00 IRadAn=         5 IDoV= 1 UseB2=F ITyADJ=14
 ICtDFT=  3500011 ScaDFX=  1.000000  1.000000  1.000000  1.000000
 FoFCou: FMM=F IPFlag=           0 FMFlag=      100000 FMFlg1=           0
         NFxFlg=           0 DoJE=T BraDBF=F KetDBF=T FulRan=T
         wScrn=  0.000000 ICntrl=     500 IOpCl=  0 I1Cent=   200000004 NGrid=           0
         NMat0=    1 NMatS0=      1 NMatT0=    0 NMatD0=    1 NMtDS0=    0 NMtDT0=    0
 Symmetry not used in FoFCou.
 Keep R1 ints in memory in canonical form, NReq=3411288.
 Requested convergence on RMS density matrix=1.00D-08 within 256 cycles.
 Requested convergence on MAX density matrix=1.00D-06.
 Requested convergence on             energy=1.00D-06.
 No special actions if energy rises.
 SCF Done:  E(RHF) =  -574.588707199     A.U. after    9 cycles
            NFock=  9  Conv=0.30D-08     -V/T= 2.0000
 ExpMin= 1.22D-01 ExpMax= 1.28D+05 ExpMxC= 1.24D+03 IAcc=3 IRadAn=         7 AccDes= 0.00D+00
 HarFok:  IExCor=  205 AccDes= 0.00D+00 IRadAn=         7 IDoV=-2 UseB2=F ITyADJ=14
 ICtDFT= 12500011 ScaDFX=  1.000000  1.000000  1.000000  1.000000
 Range of M.O.s used for correlation:     8    66
 NBasis=    66 NAE=    18 NBE=    18 NFC=     7 NFV=     0
 NROrb=     59 NOA=    11 NOB=    11 NVA=    48 NVB=    48
 Fully direct method using O(ONN) memory.
 JobTyp=1 Pass  1:  I=   8 to  18 NPSUse=  1 ParTrn=F ParDer=F DoDerP=T.
 Spin components of T(2) and E(2):
     alpha-alpha T2 =       0.1849041494D-01 E2=     -0.5962678687D-01
     alpha-beta  T2 =       0.1102530108D+00 E2=     -0.3604306810D+00
     beta-beta   T2 =       0.1849041494D-01 E2=     -0.5962678687D-01
 ANorm=    0.1071090025D+01
 E2 =    -0.4796842547D+00 EUMP2 =    -0.57506839145387D+03
          IDoAtm=1111111
          Differentiating once with respect to electric field.
                with respect to dipole field.
          Differentiating once with respect to nuclear coordinates.
 Keep R1 ints in memory in canonical form, NReq=3353298.
          There are     1 degrees of freedom in the 1st order CPHF.  IDoFFX=0 NUNeed=     1.
 LinEq1:  Iter=  0 NonCon=     1 RMS=3.70D-03 Max=3.43D-02 NDo=     1
 AX will form     1 AO Fock derivatives at one time.
 LinEq1:  Iter=  1 NonCon=     1 RMS=8.39D-04 Max=6.58D-03 NDo=     1
 LinEq1:  Iter=  2 NonCon=     1 RMS=1.97D-04 Max=1.30D-03 NDo=     1
 LinEq1:  Iter=  3 NonCon=     1 RMS=7.13D-05 Max=6.85D-04 NDo=     1
 LinEq1:  Iter=  4 NonCon=     1 RMS=1.85D-05 Max=1.55D-04 NDo=     1
 LinEq1:  Iter=  5 NonCon=     1 RMS=4.19D-06 Max=4.63D-05 NDo=     1
 LinEq1:  Iter=  6 NonCon=     1 RMS=8.92D-07 Max=9.21D-06 NDo=     1
 LinEq1:  Iter=  7 NonCon=     1 RMS=1.60D-07 Max=1.20D-06 NDo=     1
 LinEq1:  Iter=  8 NonCon=     1 RMS=2.94D-08 Max=2.09D-07 NDo=     1
 LinEq1:  Iter=  9 NonCon=     1 RMS=4.23D-09 Max=3.96D-08 NDo=     1
 LinEq1:  Iter= 10 NonCon=     1 RMS=8.64D-10 Max=9.88D-09 NDo=     1
 LinEq1:  Iter= 11 NonCon=     1 RMS=1.66D-10 Max=1.44D-09 NDo=     1
 LinEq1:  Iter= 12 NonCon=     0 RMS=3.06D-11 Max=2.50D-10 NDo=     1
 Linear equations converged to 1.000D-10 1.000D-09 after    12 iterations.
 End of Minotr F.D. properties file   721 does not exist.
 End of Minotr F.D. properties file   722 does not exist.
 End of Minotr F.D. properties file   788 does not exist.
 Symmetrizing basis deriv contribution to polar:
 IMax=3 JMax=2 DiffMx= 0.00D+00
 Calling FoFJK, ICntrl=  10002127 FMM=F ISym2X=0 I1Cent= 0 IOpClX= 0 NMat=1 NMatS=1 NMatT=0.
 -------------------------------------------------------------------
 Center     Atomic                   Forces (Hartrees/Bohr)
 Number     Number              X              Y              Z
 -------------------------------------------------------------------
      1       17          -0.020650874   -0.000672302    0.000000137
      2        6           0.008060803    0.000438587   -0.000000398
      3        1           0.000586602    0.000196901   -0.000098814
      4        1           0.000586608    0.000197072    0.000099053
      5        1           0.000468570    0.000500472   -0.000000041
      6        8           0.010315602   -0.000647597    0.000000066
      7        1           0.000632688   -0.000013133   -0.000000003
 -------------------------------------------------------------------
 Cartesian Forces:  Max     0.020650874 RMS     0.005347747
 IRC-IRC-IRC-IRC-IRC-IRC-IRC-IRC-IRC-IRC-IRC-IRC-IRC-IRC-IRC-IRC-IRC-IRC
 Pt  1 Step number   1 out of a maximum of  20
 Modified Bulirsch-Stoer Extrapolation Cycles:
    EPS =    0.000000333333333
 Maximum DWI energy   std dev =  0.000000003 at pt    -1
 Maximum DWI gradient std dev =  0.002677653 at pt     1
 CORRECTOR INTEGRATION CONVERGENCE:
   Recorrection delta-x convergence threshold:    0.001826
   Delta-x Convergence NOT Met
 IRC-IRC-IRC-IRC-IRC-IRC-IRC-IRC-IRC-IRC-IRC-IRC-IRC-IRC-IRC-IRC-IRC-IRC
                          Input orientation:                          
 ---------------------------------------------------------------------
 Center     Atomic      Atomic             Coordinates (Angstroms)
 Number     Number       Type             X           Y           Z
 ---------------------------------------------------------------------
      1         17           0       -1.685759   -0.016417    0.000009
      2          6           0        1.107950    0.001041   -0.000005
      3          1           0        0.711719   -0.509925    0.889972
      4          1           0        0.711710   -0.510006   -0.889930
      5          1           0        0.710254    1.019788   -0.000050
      6          8           0        2.540946    0.087421   -0.000017
      7          1           0        2.838840   -0.830055    0.000024
 ---------------------------------------------------------------------
                    Distance matrix (angstroms):
                    1          2          3          4          5
     1  Cl   0.000000
     2  C    2.793763   0.000000
     3  H    2.604512   1.100065   0.000000
     4  H    2.604511   1.100065   1.779901   0.000000
     5  H    2.610478   1.093622   1.769791   1.769791   0.000000
     6  O    4.227980   1.435597   2.120135   2.120134   2.054445
     7  H    4.597173   1.920078   2.327903   2.327903   2.820071
                    6          7
     6  O    0.000000
     7  H    0.964626   0.000000
 Symmetry turned off by external request.
 Stoichiometry    CH4ClO(1-)
 Framework group  C1[X(CH4ClO)]
 Deg. of freedom    15
 Full point group                 C1      NOp   1
 Rotational constants (GHZ):    127.1697159      2.2103428      2.2028163
 Standard basis: CC-pVDZ (5D, 7F)
    66 basis functions,   165 primitive gaussians,    69 cartesian basis functions
    18 alpha electrons       18 beta electrons
       nuclear repulsion energy        88.6561922470 Hartrees.
 NAtoms=    7 NActive=    7 NUniq=    7 SFac= 1.00D+00 NAtFMM=   60 NAOKFM=F Big=F
 Integral buffers will be    131072 words long.
 Raffenetti 1 integral format.
 Two-electron integral symmetry is turned off.
 One-electron integrals computed using PRISM.
 NBasis=    66 RedAO= T EigKep=  1.54D-02  NBF=    66
 NBsUse=    66 1.00D-06 EigRej= -1.00D+00 NBFU=    66
 Initial guess from the checkpoint file:  "/localscratch/rjackson.12297310.0/Gau-2585.chk"
 B after Tr=     0.000214    0.000440   -0.000000
         Rot=    1.000000    0.000000    0.000000    0.000016 Ang=   0.00 deg.
 ExpMin= 1.22D-01 ExpMax= 1.28D+05 ExpMxC= 1.24D+03 IAcc=3 IRadAn=         5 AccDes= 0.00D+00
 Harris functional with IExCor=  205 and IRadAn=       5 diagonalized for initial guess.
 HarFok:  IExCor=  205 AccDes= 0.00D+00 IRadAn=         5 IDoV= 1 UseB2=F ITyADJ=14
 ICtDFT=  3500011 ScaDFX=  1.000000  1.000000  1.000000  1.000000
 FoFCou: FMM=F IPFlag=           0 FMFlag=      100000 FMFlg1=           0
         NFxFlg=           0 DoJE=T BraDBF=F KetDBF=T FulRan=T
         wScrn=  0.000000 ICntrl=     500 IOpCl=  0 I1Cent=   200000004 NGrid=           0
         NMat0=    1 NMatS0=      1 NMatT0=    0 NMatD0=    1 NMtDS0=    0 NMtDT0=    0
 Symmetry not used in FoFCou.
 Keep R1 ints in memory in canonical form, NReq=3411288.
 Requested convergence on RMS density matrix=1.00D-08 within 256 cycles.
 Requested convergence on MAX density matrix=1.00D-06.
 Requested convergence on             energy=1.00D-06.
 No special actions if energy rises.
 SCF Done:  E(RHF) =  -574.588971531     A.U. after    8 cycles
            NFock=  8  Conv=0.77D-08     -V/T= 2.0000
 ExpMin= 1.22D-01 ExpMax= 1.28D+05 ExpMxC= 1.24D+03 IAcc=3 IRadAn=         7 AccDes= 0.00D+00
 HarFok:  IExCor=  205 AccDes= 0.00D+00 IRadAn=         7 IDoV=-2 UseB2=F ITyADJ=14
 ICtDFT= 12500011 ScaDFX=  1.000000  1.000000  1.000000  1.000000
 Range of M.O.s used for correlation:     8    66
 NBasis=    66 NAE=    18 NBE=    18 NFC=     7 NFV=     0
 NROrb=     59 NOA=    11 NOB=    11 NVA=    48 NVB=    48
 Fully direct method using O(ONN) memory.
 JobTyp=1 Pass  1:  I=   8 to  18 NPSUse=  1 ParTrn=F ParDer=F DoDerP=T.
 Spin components of T(2) and E(2):
     alpha-alpha T2 =       0.1848583774D-01 E2=     -0.5961550322D-01
     alpha-beta  T2 =       0.1102445656D+00 E2=     -0.3604053173D+00
     beta-beta   T2 =       0.1848583774D-01 E2=     -0.5961550322D-01
 ANorm=    0.1071081809D+01
 E2 =    -0.4796363237D+00 EUMP2 =    -0.57506860785503D+03
          IDoAtm=1111111
          Differentiating once with respect to electric field.
                with respect to dipole field.
          Differentiating once with respect to nuclear coordinates.
 Keep R1 ints in memory in canonical form, NReq=3353279.
          There are     1 degrees of freedom in the 1st order CPHF.  IDoFFX=0 NUNeed=     1.
 LinEq1:  Iter=  0 NonCon=     1 RMS=3.70D-03 Max=3.43D-02 NDo=     1
 AX will form     1 AO Fock derivatives at one time.
 LinEq1:  Iter=  1 NonCon=     1 RMS=8.38D-04 Max=6.57D-03 NDo=     1
 LinEq1:  Iter=  2 NonCon=     1 RMS=1.97D-04 Max=1.30D-03 NDo=     1
 LinEq1:  Iter=  3 NonCon=     1 RMS=7.13D-05 Max=6.86D-04 NDo=     1
 LinEq1:  Iter=  4 NonCon=     1 RMS=1.85D-05 Max=1.55D-04 NDo=     1
 LinEq1:  Iter=  5 NonCon=     1 RMS=4.19D-06 Max=4.62D-05 NDo=     1
 LinEq1:  Iter=  6 NonCon=     1 RMS=8.92D-07 Max=9.19D-06 NDo=     1
 LinEq1:  Iter=  7 NonCon=     1 RMS=1.60D-07 Max=1.20D-06 NDo=     1
 LinEq1:  Iter=  8 NonCon=     1 RMS=2.94D-08 Max=2.09D-07 NDo=     1
 LinEq1:  Iter=  9 NonCon=     1 RMS=4.23D-09 Max=3.96D-08 NDo=     1
 LinEq1:  Iter= 10 NonCon=     1 RMS=8.61D-10 Max=9.84D-09 NDo=     1
 LinEq1:  Iter= 11 NonCon=     1 RMS=1.65D-10 Max=1.42D-09 NDo=     1
 LinEq1:  Iter= 12 NonCon=     0 RMS=3.03D-11 Max=2.53D-10 NDo=     1
 Linear equations converged to 1.000D-10 1.000D-09 after    12 iterations.
 End of Minotr F.D. properties file   721 does not exist.
 End of Minotr F.D. properties file   722 does not exist.
 End of Minotr F.D. properties file   788 does not exist.
 Symmetrizing basis deriv contribution to polar:
 IMax=3 JMax=2 DiffMx= 0.00D+00
 Calling FoFJK, ICntrl=  10002127 FMM=F ISym2X=0 I1Cent= 0 IOpClX= 0 NMat=1 NMatS=1 NMatT=0.
 -------------------------------------------------------------------
 Center     Atomic                   Forces (Hartrees/Bohr)
 Number     Number              X              Y              Z
 -------------------------------------------------------------------
      1       17          -0.020256225   -0.000650827    0.000000130
      2        6           0.007708958    0.000881835   -0.000000155
      3        1           0.000537525    0.000130723   -0.000010310
      4        1           0.000537465    0.000130737    0.000010317
      5        1           0.000625245    0.000102777   -0.000000011
      6        8           0.010226115   -0.000554277    0.000000031
      7        1           0.000620916   -0.000040968   -0.000000003
 -------------------------------------------------------------------
 Cartesian Forces:  Max     0.020256225 RMS     0.005242798
 IRC-IRC-IRC-IRC-IRC-IRC-IRC-IRC-IRC-IRC-IRC-IRC-IRC-IRC-IRC-IRC-IRC-IRC
 Error in corrector energy =           0.0000000059
 Magnitude of corrector gradient =     0.0240227846
 Magnitude of analytic gradient =      0.0240255167
 Magnitude of difference =             0.0000038927
 Angle between gradients (degrees)=    0.0066
 Pt  1 Step number   2 out of a maximum of  20
 Modified Bulirsch-Stoer Extrapolation Cycles:
    EPS =    0.000000333333333
 Maximum DWI energy   std dev =  0.000000007 at pt     1
 Maximum DWI gradient std dev =  0.001043942 at pt    18
 CORRECTOR INTEGRATION CONVERGENCE:
   Recorrection delta-x convergence threshold:    0.001826
   Delta-x Convergence Met
 Point Number:   1          Path Number:   1
   CHANGE IN THE REACTION COORDINATE =    0.05421
   NET REACTION COORDINATE UP TO THIS POINT =    0.05421
  # OF POINTS ALONG THE PATH =   1
  # OF STEPS =   2

 Calculating another point on the path.
 IRC-IRC-IRC-IRC-IRC-IRC-IRC-IRC-IRC-IRC-IRC-IRC-IRC-IRC-IRC-IRC-IRC-IRC
                          Input orientation:                          
 ---------------------------------------------------------------------
 Center     Atomic      Atomic             Coordinates (Angstroms)
 Number     Number       Type             X           Y           Z
 ---------------------------------------------------------------------
      1         17           0       -1.690680   -0.016577    0.000009
      2          6           0        1.113358    0.001683   -0.000005
      3          1           0        0.716233   -0.508883    0.889895
      4          1           0        0.716223   -0.508965   -0.889853
      5          1           0        0.715670    1.020581   -0.000050
      6          8           0        2.546414    0.087132   -0.000017
      7          1           0        2.843984   -0.830443    0.000024
 ---------------------------------------------------------------------
                    Distance matrix (angstroms):
                    1          2          3          4          5
     1  Cl   0.000000
     2  C    2.804097   0.000000
     3  H    2.612947   1.100140   0.000000
     4  H    2.612945   1.100140   1.779748   0.000000
     5  H    2.620347   1.093760   1.769538   1.769538   0.000000
     6  O    4.238362   1.435601   2.120552   2.120551   2.054982
     7  H    4.607120   1.920287   2.328647   2.328646   2.820641
                    6          7
     6  O    0.000000
     7  H    0.964620   0.000000
 Symmetry turned off by external request.
 Stoichiometry    CH4ClO(1-)
 Framework group  C1[X(CH4ClO)]
 Deg. of freedom    15
 Full point group                 C1      NOp   1
 Rotational constants (GHZ):    127.1983835      2.1986093      2.1911657
 Standard basis: CC-pVDZ (5D, 7F)
    66 basis functions,   165 primitive gaussians,    69 cartesian basis functions
    18 alpha electrons       18 beta electrons
       nuclear repulsion energy        88.5014295183 Hartrees.
 NAtoms=    7 NActive=    7 NUniq=    7 SFac= 1.00D+00 NAtFMM=   60 NAOKFM=F Big=F
 Integral buffers will be    131072 words long.
 Raffenetti 1 integral format.
 Two-electron integral symmetry is turned off.
 One-electron integrals computed using PRISM.
 NBasis=    66 RedAO= T EigKep=  1.54D-02  NBF=    66
 NBsUse=    66 1.00D-06 EigRej= -1.00D+00 NBFU=    66
 Initial guess from the checkpoint file:  "/localscratch/rjackson.12297310.0/Gau-2585.chk"
 B after Tr=     0.000654    0.000068   -0.000000
         Rot=    1.000000    0.000000   -0.000000   -0.000007 Ang=  -0.00 deg.
 ExpMin= 1.22D-01 ExpMax= 1.28D+05 ExpMxC= 1.24D+03 IAcc=3 IRadAn=         5 AccDes= 0.00D+00
 Harris functional with IExCor=  205 and IRadAn=       5 diagonalized for initial guess.
 HarFok:  IExCor=  205 AccDes= 0.00D+00 IRadAn=         5 IDoV= 1 UseB2=F ITyADJ=14
 ICtDFT=  3500011 ScaDFX=  1.000000  1.000000  1.000000  1.000000
 FoFCou: FMM=F IPFlag=           0 FMFlag=      100000 FMFlg1=           0
         NFxFlg=           0 DoJE=T BraDBF=F KetDBF=T FulRan=T
         wScrn=  0.000000 ICntrl=     500 IOpCl=  0 I1Cent=   200000004 NGrid=           0
         NMat0=    1 NMatS0=      1 NMatT0=    0 NMatD0=    1 NMtDS0=    0 NMtDT0=    0
 Symmetry not used in FoFCou.
 Keep R1 ints in memory in canonical form, NReq=3411288.
 Requested convergence on RMS density matrix=1.00D-08 within 256 cycles.
 Requested convergence on MAX density matrix=1.00D-06.
 Requested convergence on             energy=1.00D-06.
 No special actions if energy rises.
 SCF Done:  E(RHF) =  -574.589454034     A.U. after    8 cycles
            NFock=  8  Conv=0.21D-08     -V/T= 2.0000
 ExpMin= 1.22D-01 ExpMax= 1.28D+05 ExpMxC= 1.24D+03 IAcc=3 IRadAn=         7 AccDes= 0.00D+00
 HarFok:  IExCor=  205 AccDes= 0.00D+00 IRadAn=         7 IDoV=-2 UseB2=F ITyADJ=14
 ICtDFT= 12500011 ScaDFX=  1.000000  1.000000  1.000000  1.000000
 Range of M.O.s used for correlation:     8    66
 NBasis=    66 NAE=    18 NBE=    18 NFC=     7 NFV=     0
 NROrb=     59 NOA=    11 NOB=    11 NVA=    48 NVB=    48
 Fully direct method using O(ONN) memory.
 JobTyp=1 Pass  1:  I=   8 to  18 NPSUse=  1 ParTrn=F ParDer=F DoDerP=T.
 Spin components of T(2) and E(2):
     alpha-alpha T2 =       0.1847735027D-01 E2=     -0.5959346309D-01
     alpha-beta  T2 =       0.1102289784D+00 E2=     -0.3603559996D+00
     beta-beta   T2 =       0.1847735027D-01 E2=     -0.5959346309D-01
 ANorm=    0.1071066608D+01
 E2 =    -0.4795429258D+00 EUMP2 =    -0.57506899695950D+03
          IDoAtm=1111111
          Differentiating once with respect to electric field.
                with respect to dipole field.
          Differentiating once with respect to nuclear coordinates.
 Keep R1 ints in memory in canonical form, NReq=3353222.
          There are     1 degrees of freedom in the 1st order CPHF.  IDoFFX=0 NUNeed=     1.
 LinEq1:  Iter=  0 NonCon=     1 RMS=3.70D-03 Max=3.41D-02 NDo=     1
 AX will form     1 AO Fock derivatives at one time.
 LinEq1:  Iter=  1 NonCon=     1 RMS=8.38D-04 Max=6.55D-03 NDo=     1
 LinEq1:  Iter=  2 NonCon=     1 RMS=1.97D-04 Max=1.30D-03 NDo=     1
 LinEq1:  Iter=  3 NonCon=     1 RMS=7.13D-05 Max=6.86D-04 NDo=     1
 LinEq1:  Iter=  4 NonCon=     1 RMS=1.85D-05 Max=1.56D-04 NDo=     1
 LinEq1:  Iter=  5 NonCon=     1 RMS=4.18D-06 Max=4.60D-05 NDo=     1
 LinEq1:  Iter=  6 NonCon=     1 RMS=8.92D-07 Max=9.18D-06 NDo=     1
 LinEq1:  Iter=  7 NonCon=     1 RMS=1.60D-07 Max=1.21D-06 NDo=     1
 LinEq1:  Iter=  8 NonCon=     1 RMS=2.94D-08 Max=2.09D-07 NDo=     1
 LinEq1:  Iter=  9 NonCon=     1 RMS=4.22D-09 Max=3.98D-08 NDo=     1
 LinEq1:  Iter= 10 NonCon=     1 RMS=8.58D-10 Max=9.79D-09 NDo=     1
 LinEq1:  Iter= 11 NonCon=     1 RMS=1.64D-10 Max=1.39D-09 NDo=     1
 LinEq1:  Iter= 12 NonCon=     0 RMS=3.00D-11 Max=2.58D-10 NDo=     1
 Linear equations converged to 1.000D-10 1.000D-09 after    12 iterations.
 End of Minotr F.D. properties file   721 does not exist.
 End of Minotr F.D. properties file   722 does not exist.
 End of Minotr F.D. properties file   788 does not exist.
 Symmetrizing basis deriv contribution to polar:
 IMax=3 JMax=2 DiffMx= 0.00D+00
 Calling FoFJK, ICntrl=  10002127 FMM=F ISym2X=0 I1Cent= 0 IOpClX= 0 NMat=1 NMatS=1 NMatT=0.
 -------------------------------------------------------------------
 Center     Atomic                   Forces (Hartrees/Bohr)
 Number     Number              X              Y              Z
 -------------------------------------------------------------------
      1       17          -0.019485043   -0.000639178    0.000000126
      2        6           0.007294900    0.000881963   -0.000000112
      3        1           0.000517129    0.000115031   -0.000008729
      4        1           0.000517103    0.000115032    0.000008719
      5        1           0.000628151    0.000094017   -0.000000007
      6        8           0.009949304   -0.000517686    0.000000005
      7        1           0.000578455   -0.000049181   -0.000000002
 -------------------------------------------------------------------
 Cartesian Forces:  Max     0.019485043 RMS     0.005045636
 IRC-IRC-IRC-IRC-IRC-IRC-IRC-IRC-IRC-IRC-IRC-IRC-IRC-IRC-IRC-IRC-IRC-IRC
 Pt  2 Step number   1 out of a maximum of  20
 Modified Bulirsch-Stoer Extrapolation Cycles:
    EPS =    0.000000333333333
 Maximum DWI energy   std dev =  0.000000025 at pt    47
 Maximum DWI gradient std dev =  0.000324340 at pt    58
 CORRECTOR INTEGRATION CONVERGENCE:
   Recorrection delta-x convergence threshold:    0.001826
   Delta-x Convergence Met
 Point Number:   2          Path Number:   1
   CHANGE IN THE REACTION COORDINATE =    0.07980
   NET REACTION COORDINATE UP TO THIS POINT =    0.13401
  # OF POINTS ALONG THE PATH =   2
  # OF STEPS =   1

 Calculating another point on the path.
 IRC-IRC-IRC-IRC-IRC-IRC-IRC-IRC-IRC-IRC-IRC-IRC-IRC-IRC-IRC-IRC-IRC-IRC
                          Input orientation:                          
 ---------------------------------------------------------------------
 Center     Atomic      Atomic             Coordinates (Angstroms)
 Number     Number       Type             X           Y           Z
 ---------------------------------------------------------------------
      1         17           0       -1.695600   -0.016740    0.000009
      2          6           0        1.118703    0.002340   -0.000005
      3          1           0        0.720754   -0.507884    0.889819
      4          1           0        0.720745   -0.507966   -0.889778
      5          1           0        0.721203    1.021427   -0.000050
      6          8           0        2.551926    0.086844   -0.000017
      7          1           0        2.849009   -0.830890    0.000024
 ---------------------------------------------------------------------
                    Distance matrix (angstroms):
                    1          2          3          4          5
     1  Cl   0.000000
     2  C    2.814368   0.000000
     3  H    2.621403   1.100218   0.000000
     4  H    2.621402   1.100217   1.779597   0.000000
     5  H    2.630348   1.093867   1.769367   1.769367   0.000000
     6  O    4.248789   1.435712   2.121014   2.121013   2.055478
     7  H    4.616960   1.920477   2.329279   2.329278   2.821106
                    6          7
     6  O    0.000000
     7  H    0.964621   0.000000
 Symmetry turned off by external request.
 Stoichiometry    CH4ClO(1-)
 Framework group  C1[X(CH4ClO)]
 Deg. of freedom    15
 Full point group                 C1      NOp   1
 Rotational constants (GHZ):    127.2171997      2.1869528      2.1795882
 Standard basis: CC-pVDZ (5D, 7F)
    66 basis functions,   165 primitive gaussians,    69 cartesian basis functions
    18 alpha electrons       18 beta electrons
       nuclear repulsion energy        88.3464226243 Hartrees.
 NAtoms=    7 NActive=    7 NUniq=    7 SFac= 1.00D+00 NAtFMM=   60 NAOKFM=F Big=F
 Integral buffers will be    131072 words long.
 Raffenetti 1 integral format.
 Two-electron integral symmetry is turned off.
 One-electron integrals computed using PRISM.
 NBasis=    66 RedAO= T EigKep=  1.54D-02  NBF=    66
 NBsUse=    66 1.00D-06 EigRej= -1.00D+00 NBFU=    66
 Initial guess from the checkpoint file:  "/localscratch/rjackson.12297310.0/Gau-2585.chk"
 B after Tr=     0.000654    0.000066   -0.000000
         Rot=    1.000000    0.000000   -0.000000   -0.000007 Ang=  -0.00 deg.
 ExpMin= 1.22D-01 ExpMax= 1.28D+05 ExpMxC= 1.24D+03 IAcc=3 IRadAn=         5 AccDes= 0.00D+00
 Harris functional with IExCor=  205 and IRadAn=       5 diagonalized for initial guess.
 HarFok:  IExCor=  205 AccDes= 0.00D+00 IRadAn=         5 IDoV= 1 UseB2=F ITyADJ=14
 ICtDFT=  3500011 ScaDFX=  1.000000  1.000000  1.000000  1.000000
 FoFCou: FMM=F IPFlag=           0 FMFlag=      100000 FMFlg1=           0
         NFxFlg=           0 DoJE=T BraDBF=F KetDBF=T FulRan=T
         wScrn=  0.000000 ICntrl=     500 IOpCl=  0 I1Cent=   200000004 NGrid=           0
         NMat0=    1 NMatS0=      1 NMatT0=    0 NMatD0=    1 NMtDS0=    0 NMtDT0=    0
 Symmetry not used in FoFCou.
 Keep R1 ints in memory in canonical form, NReq=3411260.
 Requested convergence on RMS density matrix=1.00D-08 within 256 cycles.
 Requested convergence on MAX density matrix=1.00D-06.
 Requested convergence on             energy=1.00D-06.
 No special actions if energy rises.
 SCF Done:  E(RHF) =  -574.589916870     A.U. after    8 cycles
            NFock=  8  Conv=0.46D-08     -V/T= 2.0000
 ExpMin= 1.22D-01 ExpMax= 1.28D+05 ExpMxC= 1.24D+03 IAcc=3 IRadAn=         7 AccDes= 0.00D+00
 HarFok:  IExCor=  205 AccDes= 0.00D+00 IRadAn=         7 IDoV=-2 UseB2=F ITyADJ=14
 ICtDFT= 12500011 ScaDFX=  1.000000  1.000000  1.000000  1.000000
 Range of M.O.s used for correlation:     8    66
 NBasis=    66 NAE=    18 NBE=    18 NFC=     7 NFV=     0
 NROrb=     59 NOA=    11 NOB=    11 NVA=    48 NVB=    48
 Fully direct method using O(ONN) memory.
 JobTyp=1 Pass  1:  I=   8 to  18 NPSUse=  1 ParTrn=F ParDer=F DoDerP=T.
 Spin components of T(2) and E(2):
     alpha-alpha T2 =       0.1846931747D-01 E2=     -0.5957196662D-01
     alpha-beta  T2 =       0.1102161240D+00 E2=     -0.3603104173D+00
     beta-beta   T2 =       0.1846931747D-01 E2=     -0.5957196662D-01
 ANorm=    0.1071053107D+01
 E2 =    -0.4794543505D+00 EUMP2 =    -0.57506937122041D+03
          IDoAtm=1111111
          Differentiating once with respect to electric field.
                with respect to dipole field.
          Differentiating once with respect to nuclear coordinates.
 Keep R1 ints in memory in canonical form, NReq=3353165.
          There are     1 degrees of freedom in the 1st order CPHF.  IDoFFX=0 NUNeed=     1.
 LinEq1:  Iter=  0 NonCon=     1 RMS=3.69D-03 Max=3.40D-02 NDo=     1
 AX will form     1 AO Fock derivatives at one time.
 LinEq1:  Iter=  1 NonCon=     1 RMS=8.37D-04 Max=6.54D-03 NDo=     1
 LinEq1:  Iter=  2 NonCon=     1 RMS=1.97D-04 Max=1.30D-03 NDo=     1
 LinEq1:  Iter=  3 NonCon=     1 RMS=7.14D-05 Max=6.86D-04 NDo=     1
 LinEq1:  Iter=  4 NonCon=     1 RMS=1.84D-05 Max=1.57D-04 NDo=     1
 LinEq1:  Iter=  5 NonCon=     1 RMS=4.18D-06 Max=4.59D-05 NDo=     1
 LinEq1:  Iter=  6 NonCon=     1 RMS=8.93D-07 Max=9.17D-06 NDo=     1
 LinEq1:  Iter=  7 NonCon=     1 RMS=1.60D-07 Max=1.22D-06 NDo=     1
 LinEq1:  Iter=  8 NonCon=     1 RMS=2.94D-08 Max=2.10D-07 NDo=     1
 LinEq1:  Iter=  9 NonCon=     1 RMS=4.22D-09 Max=4.00D-08 NDo=     1
 LinEq1:  Iter= 10 NonCon=     1 RMS=8.56D-10 Max=9.75D-09 NDo=     1
 LinEq1:  Iter= 11 NonCon=     1 RMS=1.62D-10 Max=1.36D-09 NDo=     1
 LinEq1:  Iter= 12 NonCon=     0 RMS=2.97D-11 Max=2.62D-10 NDo=     1
 Linear equations converged to 1.000D-10 1.000D-09 after    12 iterations.
 End of Minotr F.D. properties file   721 does not exist.
 End of Minotr F.D. properties file   722 does not exist.
 End of Minotr F.D. properties file   788 does not exist.
 Symmetrizing basis deriv contribution to polar:
 IMax=3 JMax=2 DiffMx= 0.00D+00
 Calling FoFJK, ICntrl=  10002127 FMM=F ISym2X=0 I1Cent= 0 IOpClX= 0 NMat=1 NMatS=1 NMatT=0.
 -------------------------------------------------------------------
 Center     Atomic                   Forces (Hartrees/Bohr)
 Number     Number              X              Y              Z
 -------------------------------------------------------------------
      1       17          -0.018735513   -0.000628137    0.000000121
      2        6           0.006959346    0.000869688   -0.000000094
      3        1           0.000497511    0.000109735   -0.000008709
      4        1           0.000497501    0.000109735    0.000008696
      5        1           0.000612395    0.000095162   -0.000000007
      6        8           0.009620707   -0.000504718   -0.000000006
      7        1           0.000548054   -0.000051466   -0.000000001
 -------------------------------------------------------------------
 Cartesian Forces:  Max     0.018735513 RMS     0.004853187
 IRC-IRC-IRC-IRC-IRC-IRC-IRC-IRC-IRC-IRC-IRC-IRC-IRC-IRC-IRC-IRC-IRC-IRC
 Pt  3 Step number   1 out of a maximum of  20
 Modified Bulirsch-Stoer Extrapolation Cycles:
    EPS =    0.000000333333333
 Maximum DWI energy   std dev =  0.000000025 at pt    47
 Maximum DWI gradient std dev =  0.000350421 at pt    58
 CORRECTOR INTEGRATION CONVERGENCE:
   Recorrection delta-x convergence threshold:    0.001826
   Delta-x Convergence Met
 Point Number:   3          Path Number:   1
   CHANGE IN THE REACTION COORDINATE =    0.07980
   NET REACTION COORDINATE UP TO THIS POINT =    0.21382
  # OF POINTS ALONG THE PATH =   3
  # OF STEPS =   1

 Calculating another point on the path.
 IRC-IRC-IRC-IRC-IRC-IRC-IRC-IRC-IRC-IRC-IRC-IRC-IRC-IRC-IRC-IRC-IRC-IRC
                          Input orientation:                          
 ---------------------------------------------------------------------
 Center     Atomic      Atomic             Coordinates (Angstroms)
 Number     Number       Type             X           Y           Z
 ---------------------------------------------------------------------
      1         17           0       -1.700520   -0.016907    0.000009
      2          6           0        1.124018    0.003015   -0.000005
      3          1           0        0.725277   -0.506880    0.889746
      4          1           0        0.725267   -0.506961   -0.889704
      5          1           0        0.726792    1.022318   -0.000050
      6          8           0        2.557458    0.086550   -0.000017
      7          1           0        2.853980   -0.831368    0.000024
 ---------------------------------------------------------------------
                    Distance matrix (angstroms):
                    1          2          3          4          5
     1  Cl   0.000000
     2  C    2.824608   0.000000
     3  H    2.629866   1.100292   0.000000
     4  H    2.629864   1.100292   1.779449   0.000000
     5  H    2.640422   1.093968   1.769232   1.769232   0.000000
     6  O    4.259235   1.435872   2.121491   2.121491   2.055967
     7  H    4.626750   1.920668   2.329866   2.329866   2.821539
                    6          7
     6  O    0.000000
     7  H    0.964624   0.000000
 Symmetry turned off by external request.
 Stoichiometry    CH4ClO(1-)
 Framework group  C1[X(CH4ClO)]
 Deg. of freedom    15
 Full point group                 C1      NOp   1
 Rotational constants (GHZ):    127.2313302      2.1753812      2.1680934
 Standard basis: CC-pVDZ (5D, 7F)
    66 basis functions,   165 primitive gaussians,    69 cartesian basis functions
    18 alpha electrons       18 beta electrons
       nuclear repulsion energy        88.1918187788 Hartrees.
 NAtoms=    7 NActive=    7 NUniq=    7 SFac= 1.00D+00 NAtFMM=   60 NAOKFM=F Big=F
 Integral buffers will be    131072 words long.
 Raffenetti 1 integral format.
 Two-electron integral symmetry is turned off.
 One-electron integrals computed using PRISM.
 NBasis=    66 RedAO= T EigKep=  1.55D-02  NBF=    66
 NBsUse=    66 1.00D-06 EigRej= -1.00D+00 NBFU=    66
 Initial guess from the checkpoint file:  "/localscratch/rjackson.12297310.0/Gau-2585.chk"
 B after Tr=     0.000654    0.000067   -0.000000
         Rot=    1.000000    0.000000   -0.000000   -0.000006 Ang=  -0.00 deg.
 ExpMin= 1.22D-01 ExpMax= 1.28D+05 ExpMxC= 1.24D+03 IAcc=3 IRadAn=         5 AccDes= 0.00D+00
 Harris functional with IExCor=  205 and IRadAn=       5 diagonalized for initial guess.
 HarFok:  IExCor=  205 AccDes= 0.00D+00 IRadAn=         5 IDoV= 1 UseB2=F ITyADJ=14
 ICtDFT=  3500011 ScaDFX=  1.000000  1.000000  1.000000  1.000000
 FoFCou: FMM=F IPFlag=           0 FMFlag=      100000 FMFlg1=           0
         NFxFlg=           0 DoJE=T BraDBF=F KetDBF=T FulRan=T
         wScrn=  0.000000 ICntrl=     500 IOpCl=  0 I1Cent=   200000004 NGrid=           0
         NMat0=    1 NMatS0=      1 NMatT0=    0 NMatD0=    1 NMtDS0=    0 NMtDT0=    0
 Symmetry not used in FoFCou.
 Keep R1 ints in memory in canonical form, NReq=3411191.
 Requested convergence on RMS density matrix=1.00D-08 within 256 cycles.
 Requested convergence on MAX density matrix=1.00D-06.
 Requested convergence on             energy=1.00D-06.
 No special actions if energy rises.
 SCF Done:  E(RHF) =  -574.590362198     A.U. after    8 cycles
            NFock=  8  Conv=0.46D-08     -V/T= 2.0000
 ExpMin= 1.22D-01 ExpMax= 1.28D+05 ExpMxC= 1.24D+03 IAcc=3 IRadAn=         7 AccDes= 0.00D+00
 HarFok:  IExCor=  205 AccDes= 0.00D+00 IRadAn=         7 IDoV=-2 UseB2=F ITyADJ=14
 ICtDFT= 12500011 ScaDFX=  1.000000  1.000000  1.000000  1.000000
 Range of M.O.s used for correlation:     8    66
 NBasis=    66 NAE=    18 NBE=    18 NFC=     7 NFV=     0
 NROrb=     59 NOA=    11 NOB=    11 NVA=    48 NVB=    48
 Fully direct method using O(ONN) memory.
 JobTyp=1 Pass  1:  I=   8 to  18 NPSUse=  1 ParTrn=F ParDer=F DoDerP=T.
 Spin components of T(2) and E(2):
     alpha-alpha T2 =       0.1846157019D-01 E2=     -0.5955093525D-01
     alpha-beta  T2 =       0.1102046825D+00 E2=     -0.3602670150D+00
     beta-beta   T2 =       0.1846157019D-01 E2=     -0.5955093525D-01
 ANorm=    0.1071040533D+01
 E2 =    -0.4793688855D+00 EUMP2 =    -0.57506973108349D+03
          IDoAtm=1111111
          Differentiating once with respect to electric field.
                with respect to dipole field.
          Differentiating once with respect to nuclear coordinates.
 Keep R1 ints in memory in canonical form, NReq=3353089.
          There are     1 degrees of freedom in the 1st order CPHF.  IDoFFX=0 NUNeed=     1.
 LinEq1:  Iter=  0 NonCon=     1 RMS=3.69D-03 Max=3.40D-02 NDo=     1
 AX will form     1 AO Fock derivatives at one time.
 LinEq1:  Iter=  1 NonCon=     1 RMS=8.37D-04 Max=6.53D-03 NDo=     1
 LinEq1:  Iter=  2 NonCon=     1 RMS=1.97D-04 Max=1.30D-03 NDo=     1
 LinEq1:  Iter=  3 NonCon=     1 RMS=7.15D-05 Max=6.86D-04 NDo=     1
 LinEq1:  Iter=  4 NonCon=     1 RMS=1.84D-05 Max=1.58D-04 NDo=     1
 LinEq1:  Iter=  5 NonCon=     1 RMS=4.18D-06 Max=4.58D-05 NDo=     1
 LinEq1:  Iter=  6 NonCon=     1 RMS=8.94D-07 Max=9.16D-06 NDo=     1
 LinEq1:  Iter=  7 NonCon=     1 RMS=1.61D-07 Max=1.23D-06 NDo=     1
 LinEq1:  Iter=  8 NonCon=     1 RMS=2.94D-08 Max=2.10D-07 NDo=     1
 LinEq1:  Iter=  9 NonCon=     1 RMS=4.22D-09 Max=4.02D-08 NDo=     1
 LinEq1:  Iter= 10 NonCon=     1 RMS=8.55D-10 Max=9.72D-09 NDo=     1
 LinEq1:  Iter= 11 NonCon=     1 RMS=1.61D-10 Max=1.34D-09 NDo=     1
 LinEq1:  Iter= 12 NonCon=     0 RMS=2.95D-11 Max=2.64D-10 NDo=     1
 Linear equations converged to 1.000D-10 1.000D-09 after    12 iterations.
 End of Minotr F.D. properties file   721 does not exist.
 End of Minotr F.D. properties file   722 does not exist.
 End of Minotr F.D. properties file   788 does not exist.
 Symmetrizing basis deriv contribution to polar:
 IMax=3 JMax=2 DiffMx= 0.00D+00
 Calling FoFJK, ICntrl=  10002127 FMM=F ISym2X=0 I1Cent= 0 IOpClX= 0 NMat=1 NMatS=1 NMatT=0.
 -------------------------------------------------------------------
 Center     Atomic                   Forces (Hartrees/Bohr)
 Number     Number              X              Y              Z
 -------------------------------------------------------------------
      1       17          -0.018007437   -0.000617504    0.000000117
      2        6           0.006664393    0.000859782   -0.000000085
      3        1           0.000478527    0.000106990   -0.000007896
      4        1           0.000478524    0.000106990    0.000007881
      5        1           0.000593451    0.000095623   -0.000000008
      6        8           0.009270383   -0.000499855   -0.000000009
      7        1           0.000522158   -0.000052028   -0.000000001
 -------------------------------------------------------------------
 Cartesian Forces:  Max     0.018007437 RMS     0.004665527
 IRC-IRC-IRC-IRC-IRC-IRC-IRC-IRC-IRC-IRC-IRC-IRC-IRC-IRC-IRC-IRC-IRC-IRC
 Pt  4 Step number   1 out of a maximum of  20
 Modified Bulirsch-Stoer Extrapolation Cycles:
    EPS =    0.000000333333333
 Maximum DWI energy   std dev =  0.000000025 at pt    47
 Maximum DWI gradient std dev =  0.000352113 at pt    58
 CORRECTOR INTEGRATION CONVERGENCE:
   Recorrection delta-x convergence threshold:    0.001826
   Delta-x Convergence Met
 Point Number:   4          Path Number:   1
   CHANGE IN THE REACTION COORDINATE =    0.07980
   NET REACTION COORDINATE UP TO THIS POINT =    0.29362
  # OF POINTS ALONG THE PATH =   4
  # OF STEPS =   1

 Calculating another point on the path.
 IRC-IRC-IRC-IRC-IRC-IRC-IRC-IRC-IRC-IRC-IRC-IRC-IRC-IRC-IRC-IRC-IRC-IRC
                          Input orientation:                          
 ---------------------------------------------------------------------
 Center     Atomic      Atomic             Coordinates (Angstroms)
 Number     Number       Type             X           Y           Z
 ---------------------------------------------------------------------
      1         17           0       -1.705438   -0.017077    0.000009
      2          6           0        1.129319    0.003710   -0.000005
      3          1           0        0.729803   -0.505856    0.889676
      4          1           0        0.729793   -0.505938   -0.889635
      5          1           0        0.732423    1.023248   -0.000050
      6          8           0        2.562998    0.086246   -0.000017
      7          1           0        2.858914   -0.831872    0.000024
 ---------------------------------------------------------------------
                    Distance matrix (angstroms):
                    1          2          3          4          5
     1  Cl   0.000000
     2  C    2.834833   0.000000
     3  H    2.638335   1.100364   0.000000
     4  H    2.638333   1.100364   1.779310   0.000000
     5  H    2.650555   1.094068   1.769117   1.769117   0.000000
     6  O    4.269687   1.436054   2.121967   2.121967   2.056448
     7  H    4.636508   1.920858   2.330425   2.330425   2.821955
                    6          7
     6  O    0.000000
     7  H    0.964628   0.000000
 Symmetry turned off by external request.
 Stoichiometry    CH4ClO(1-)
 Framework group  C1[X(CH4ClO)]
 Deg. of freedom    15
 Full point group                 C1      NOp   1
 Rotational constants (GHZ):    127.2424787      2.1638985      2.1566859
 Standard basis: CC-pVDZ (5D, 7F)
    66 basis functions,   165 primitive gaussians,    69 cartesian basis functions
    18 alpha electrons       18 beta electrons
       nuclear repulsion energy        88.0379410514 Hartrees.
 NAtoms=    7 NActive=    7 NUniq=    7 SFac= 1.00D+00 NAtFMM=   60 NAOKFM=F Big=F
 Integral buffers will be    131072 words long.
 Raffenetti 1 integral format.
 Two-electron integral symmetry is turned off.
 One-electron integrals computed using PRISM.
 NBasis=    66 RedAO= T EigKep=  1.55D-02  NBF=    66
 NBsUse=    66 1.00D-06 EigRej= -1.00D+00 NBFU=    66
 Initial guess from the checkpoint file:  "/localscratch/rjackson.12297310.0/Gau-2585.chk"
 B after Tr=     0.000655    0.000069   -0.000000
         Rot=    1.000000    0.000000   -0.000000   -0.000006 Ang=  -0.00 deg.
 ExpMin= 1.22D-01 ExpMax= 1.28D+05 ExpMxC= 1.24D+03 IAcc=3 IRadAn=         5 AccDes= 0.00D+00
 Harris functional with IExCor=  205 and IRadAn=       5 diagonalized for initial guess.
 HarFok:  IExCor=  205 AccDes= 0.00D+00 IRadAn=         5 IDoV= 1 UseB2=F ITyADJ=14
 ICtDFT=  3500011 ScaDFX=  1.000000  1.000000  1.000000  1.000000
 FoFCou: FMM=F IPFlag=           0 FMFlag=      100000 FMFlg1=           0
         NFxFlg=           0 DoJE=T BraDBF=F KetDBF=T FulRan=T
         wScrn=  0.000000 ICntrl=     500 IOpCl=  0 I1Cent=   200000004 NGrid=           0
         NMat0=    1 NMatS0=      1 NMatT0=    0 NMatD0=    1 NMtDS0=    0 NMtDT0=    0
 Symmetry not used in FoFCou.
 Keep R1 ints in memory in canonical form, NReq=3411136.
 Requested convergence on RMS density matrix=1.00D-08 within 256 cycles.
 Requested convergence on MAX density matrix=1.00D-06.
 Requested convergence on             energy=1.00D-06.
 No special actions if energy rises.
 SCF Done:  E(RHF) =  -574.590791328     A.U. after    8 cycles
            NFock=  8  Conv=0.46D-08     -V/T= 2.0000
 ExpMin= 1.22D-01 ExpMax= 1.28D+05 ExpMxC= 1.24D+03 IAcc=3 IRadAn=         7 AccDes= 0.00D+00
 HarFok:  IExCor=  205 AccDes= 0.00D+00 IRadAn=         7 IDoV=-2 UseB2=F ITyADJ=14
 ICtDFT= 12500011 ScaDFX=  1.000000  1.000000  1.000000  1.000000
 Range of M.O.s used for correlation:     8    66
 NBasis=    66 NAE=    18 NBE=    18 NFC=     7 NFV=     0
 NROrb=     59 NOA=    11 NOB=    11 NVA=    48 NVB=    48
 Fully direct method using O(ONN) memory.
 JobTyp=1 Pass  1:  I=   8 to  18 NPSUse=  1 ParTrn=F ParDer=F DoDerP=T.
 Spin components of T(2) and E(2):
     alpha-alpha T2 =       0.1845401429D-01 E2=     -0.5953031104D-01
     alpha-beta  T2 =       0.1101939745D+00 E2=     -0.3602250111D+00
     beta-beta   T2 =       0.1845401429D-01 E2=     -0.5953031104D-01
 ANorm=    0.1071028479D+01
 E2 =    -0.4792856332D+00 EUMP2 =    -0.57507007696120D+03
          IDoAtm=1111111
          Differentiating once with respect to electric field.
                with respect to dipole field.
          Differentiating once with respect to nuclear coordinates.
 Keep R1 ints in memory in canonical form, NReq=3353051.
          There are     1 degrees of freedom in the 1st order CPHF.  IDoFFX=0 NUNeed=     1.
 LinEq1:  Iter=  0 NonCon=     1 RMS=3.68D-03 Max=3.39D-02 NDo=     1
 AX will form     1 AO Fock derivatives at one time.
 LinEq1:  Iter=  1 NonCon=     1 RMS=8.37D-04 Max=6.51D-03 NDo=     1
 LinEq1:  Iter=  2 NonCon=     1 RMS=1.97D-04 Max=1.30D-03 NDo=     1
 LinEq1:  Iter=  3 NonCon=     1 RMS=7.16D-05 Max=6.87D-04 NDo=     1
 LinEq1:  Iter=  4 NonCon=     1 RMS=1.84D-05 Max=1.59D-04 NDo=     1
 LinEq1:  Iter=  5 NonCon=     1 RMS=4.17D-06 Max=4.57D-05 NDo=     1
 LinEq1:  Iter=  6 NonCon=     1 RMS=8.95D-07 Max=9.14D-06 NDo=     1
 LinEq1:  Iter=  7 NonCon=     1 RMS=1.61D-07 Max=1.24D-06 NDo=     1
 LinEq1:  Iter=  8 NonCon=     1 RMS=2.94D-08 Max=2.10D-07 NDo=     1
 LinEq1:  Iter=  9 NonCon=     1 RMS=4.22D-09 Max=4.04D-08 NDo=     1
 LinEq1:  Iter= 10 NonCon=     1 RMS=8.55D-10 Max=9.70D-09 NDo=     1
 LinEq1:  Iter= 11 NonCon=     1 RMS=1.60D-10 Max=1.32D-09 NDo=     1
 LinEq1:  Iter= 12 NonCon=     0 RMS=2.92D-11 Max=2.65D-10 NDo=     1
 Linear equations converged to 1.000D-10 1.000D-09 after    12 iterations.
 End of Minotr F.D. properties file   721 does not exist.
 End of Minotr F.D. properties file   722 does not exist.
 End of Minotr F.D. properties file   788 does not exist.
 Symmetrizing basis deriv contribution to polar:
 IMax=3 JMax=2 DiffMx= 0.00D+00
 Calling FoFJK, ICntrl=  10002127 FMM=F ISym2X=0 I1Cent= 0 IOpClX= 0 NMat=1 NMatS=1 NMatT=0.
 -------------------------------------------------------------------
 Center     Atomic                   Forces (Hartrees/Bohr)
 Number     Number              X              Y              Z
 -------------------------------------------------------------------
      1       17          -0.017300209   -0.000607154    0.000000113
      2        6           0.006392808    0.000850927   -0.000000079
      3        1           0.000460212    0.000105149   -0.000007171
      4        1           0.000460211    0.000105149    0.000007156
      5        1           0.000574575    0.000095630   -0.000000008
      6        8           0.008914002   -0.000497585   -0.000000010
      7        1           0.000498401   -0.000052115   -0.000000001
 -------------------------------------------------------------------
 Cartesian Forces:  Max     0.017300209 RMS     0.004482777
 IRC-IRC-IRC-IRC-IRC-IRC-IRC-IRC-IRC-IRC-IRC-IRC-IRC-IRC-IRC-IRC-IRC-IRC
 Pt  5 Step number   1 out of a maximum of  20
 Modified Bulirsch-Stoer Extrapolation Cycles:
    EPS =    0.000000333333333
 Maximum DWI energy   std dev =  0.000000024 at pt    47
 Maximum DWI gradient std dev =  0.000356619 at pt    58
 CORRECTOR INTEGRATION CONVERGENCE:
   Recorrection delta-x convergence threshold:    0.001826
   Delta-x Convergence Met
 Point Number:   5          Path Number:   1
   CHANGE IN THE REACTION COORDINATE =    0.07980
   NET REACTION COORDINATE UP TO THIS POINT =    0.37342
  # OF POINTS ALONG THE PATH =   5
  # OF STEPS =   1

 Calculating another point on the path.
 IRC-IRC-IRC-IRC-IRC-IRC-IRC-IRC-IRC-IRC-IRC-IRC-IRC-IRC-IRC-IRC-IRC-IRC
                          Input orientation:                          
 ---------------------------------------------------------------------
 Center     Atomic      Atomic             Coordinates (Angstroms)
 Number     Number       Type             X           Y           Z
 ---------------------------------------------------------------------
      1         17           0       -1.710356   -0.017252    0.000009
      2          6           0        1.134613    0.004425   -0.000005
      3          1           0        0.734332   -0.504807    0.889610
      4          1           0        0.734322   -0.504889   -0.889569
      5          1           0        0.738097    1.024215   -0.000050
      6          8           0        2.568540    0.085931   -0.000017
      7          1           0        2.863817   -0.832397    0.000024
 ---------------------------------------------------------------------
                    Distance matrix (angstroms):
                    1          2          3          4          5
     1  Cl   0.000000
     2  C    2.845052   0.000000
     3  H    2.646809   1.100435   0.000000
     4  H    2.646807   1.100435   1.779179   0.000000
     5  H    2.660747   1.094165   1.769016   1.769016   0.000000
     6  O    4.280139   1.436241   2.122434   2.122434   2.056915
     7  H    4.646237   1.921046   2.330963   2.330962   2.822356
                    6          7
     6  O    0.000000
     7  H    0.964632   0.000000
 Symmetry turned off by external request.
 Stoichiometry    CH4ClO(1-)
 Framework group  C1[X(CH4ClO)]
 Deg. of freedom    15
 Full point group                 C1      NOp   1
 Rotational constants (GHZ):    127.2513639      2.1525066      2.1453679
 Standard basis: CC-pVDZ (5D, 7F)
    66 basis functions,   165 primitive gaussians,    69 cartesian basis functions
    18 alpha electrons       18 beta electrons
       nuclear repulsion energy        87.8849616943 Hartrees.
 NAtoms=    7 NActive=    7 NUniq=    7 SFac= 1.00D+00 NAtFMM=   60 NAOKFM=F Big=F
 Integral buffers will be    131072 words long.
 Raffenetti 1 integral format.
 Two-electron integral symmetry is turned off.
 One-electron integrals computed using PRISM.
 NBasis=    66 RedAO= T EigKep=  1.55D-02  NBF=    66
 NBsUse=    66 1.00D-06 EigRej= -1.00D+00 NBFU=    66
 Initial guess from the checkpoint file:  "/localscratch/rjackson.12297310.0/Gau-2585.chk"
 B after Tr=     0.000655    0.000070   -0.000000
         Rot=    1.000000   -0.000000   -0.000000   -0.000006 Ang=  -0.00 deg.
 ExpMin= 1.22D-01 ExpMax= 1.28D+05 ExpMxC= 1.24D+03 IAcc=3 IRadAn=         5 AccDes= 0.00D+00
 Harris functional with IExCor=  205 and IRadAn=       5 diagonalized for initial guess.
 HarFok:  IExCor=  205 AccDes= 0.00D+00 IRadAn=         5 IDoV= 1 UseB2=F ITyADJ=14
 ICtDFT=  3500011 ScaDFX=  1.000000  1.000000  1.000000  1.000000
 FoFCou: FMM=F IPFlag=           0 FMFlag=      100000 FMFlg1=           0
         NFxFlg=           0 DoJE=T BraDBF=F KetDBF=T FulRan=T
         wScrn=  0.000000 ICntrl=     500 IOpCl=  0 I1Cent=   200000004 NGrid=           0
         NMat0=    1 NMatS0=      1 NMatT0=    0 NMatD0=    1 NMtDS0=    0 NMtDT0=    0
 Symmetry not used in FoFCou.
 Keep R1 ints in memory in canonical form, NReq=3411122.
 Requested convergence on RMS density matrix=1.00D-08 within 256 cycles.
 Requested convergence on MAX density matrix=1.00D-06.
 Requested convergence on             energy=1.00D-06.
 No special actions if energy rises.
 SCF Done:  E(RHF) =  -574.591205160     A.U. after    8 cycles
            NFock=  8  Conv=0.45D-08     -V/T= 2.0000
 ExpMin= 1.22D-01 ExpMax= 1.28D+05 ExpMxC= 1.24D+03 IAcc=3 IRadAn=         7 AccDes= 0.00D+00
 HarFok:  IExCor=  205 AccDes= 0.00D+00 IRadAn=         7 IDoV=-2 UseB2=F ITyADJ=14
 ICtDFT= 12500011 ScaDFX=  1.000000  1.000000  1.000000  1.000000
 Range of M.O.s used for correlation:     8    66
 NBasis=    66 NAE=    18 NBE=    18 NFC=     7 NFV=     0
 NROrb=     59 NOA=    11 NOB=    11 NVA=    48 NVB=    48
 Fully direct method using O(ONN) memory.
 JobTyp=1 Pass  1:  I=   8 to  18 NPSUse=  1 ParTrn=F ParDer=F DoDerP=T.
 Spin components of T(2) and E(2):
     alpha-alpha T2 =       0.1844659635D-01 E2=     -0.5951005698D-01
     alpha-beta  T2 =       0.1101836234D+00 E2=     -0.3601839789D+00
     beta-beta   T2 =       0.1844659635D-01 E2=     -0.5951005698D-01
 ANorm=    0.1071016721D+01
 E2 =    -0.4792040928D+00 EUMP2 =    -0.57507040925309D+03
          IDoAtm=1111111
          Differentiating once with respect to electric field.
                with respect to dipole field.
          Differentiating once with respect to nuclear coordinates.
 Keep R1 ints in memory in canonical form, NReq=3353013.
          There are     1 degrees of freedom in the 1st order CPHF.  IDoFFX=0 NUNeed=     1.
 LinEq1:  Iter=  0 NonCon=     1 RMS=3.68D-03 Max=3.38D-02 NDo=     1
 AX will form     1 AO Fock derivatives at one time.
 LinEq1:  Iter=  1 NonCon=     1 RMS=8.36D-04 Max=6.50D-03 NDo=     1
 LinEq1:  Iter=  2 NonCon=     1 RMS=1.97D-04 Max=1.30D-03 NDo=     1
 LinEq1:  Iter=  3 NonCon=     1 RMS=7.18D-05 Max=6.87D-04 NDo=     1
 LinEq1:  Iter=  4 NonCon=     1 RMS=1.84D-05 Max=1.60D-04 NDo=     1
 LinEq1:  Iter=  5 NonCon=     1 RMS=4.17D-06 Max=4.55D-05 NDo=     1
 LinEq1:  Iter=  6 NonCon=     1 RMS=8.96D-07 Max=9.13D-06 NDo=     1
 LinEq1:  Iter=  7 NonCon=     1 RMS=1.62D-07 Max=1.25D-06 NDo=     1
 LinEq1:  Iter=  8 NonCon=     1 RMS=2.94D-08 Max=2.10D-07 NDo=     1
 LinEq1:  Iter=  9 NonCon=     1 RMS=4.22D-09 Max=4.05D-08 NDo=     1
 LinEq1:  Iter= 10 NonCon=     1 RMS=8.55D-10 Max=9.69D-09 NDo=     1
 LinEq1:  Iter= 11 NonCon=     1 RMS=1.59D-10 Max=1.30D-09 NDo=     1
 LinEq1:  Iter= 12 NonCon=     0 RMS=2.90D-11 Max=2.64D-10 NDo=     1
 Linear equations converged to 1.000D-10 1.000D-09 after    12 iterations.
 End of Minotr F.D. properties file   721 does not exist.
 End of Minotr F.D. properties file   722 does not exist.
 End of Minotr F.D. properties file   788 does not exist.
 Symmetrizing basis deriv contribution to polar:
 IMax=3 JMax=2 DiffMx= 0.00D+00
 Calling FoFJK, ICntrl=  10002127 FMM=F ISym2X=0 I1Cent= 0 IOpClX= 0 NMat=1 NMatS=1 NMatT=0.
 -------------------------------------------------------------------
 Center     Atomic                   Forces (Hartrees/Bohr)
 Number     Number              X              Y              Z
 -------------------------------------------------------------------
      1       17          -0.016613219   -0.000597035    0.000000110
      2        6           0.006136110    0.000842458   -0.000000076
      3        1           0.000442440    0.000103651   -0.000006547
      4        1           0.000442441    0.000103652    0.000006531
      5        1           0.000556265    0.000095487   -0.000000008
      6        8           0.008560120   -0.000496245   -0.000000010
      7        1           0.000475843   -0.000051968   -0.000000001
 -------------------------------------------------------------------
 Cartesian Forces:  Max     0.016613219 RMS     0.004305034
 IRC-IRC-IRC-IRC-IRC-IRC-IRC-IRC-IRC-IRC-IRC-IRC-IRC-IRC-IRC-IRC-IRC-IRC
 Pt  6 Step number   1 out of a maximum of  20
 Modified Bulirsch-Stoer Extrapolation Cycles:
    EPS =    0.000000333333333
 Maximum DWI energy   std dev =  0.000000023 at pt    47
 Maximum DWI gradient std dev =  0.000362638 at pt    58
 CORRECTOR INTEGRATION CONVERGENCE:
   Recorrection delta-x convergence threshold:    0.001826
   Delta-x Convergence Met
 Point Number:   6          Path Number:   1
   CHANGE IN THE REACTION COORDINATE =    0.07980
   NET REACTION COORDINATE UP TO THIS POINT =    0.45323
  # OF POINTS ALONG THE PATH =   6
  # OF STEPS =   1

 Calculating another point on the path.
 IRC-IRC-IRC-IRC-IRC-IRC-IRC-IRC-IRC-IRC-IRC-IRC-IRC-IRC-IRC-IRC-IRC-IRC
                          Input orientation:                          
 ---------------------------------------------------------------------
 Center     Atomic      Atomic             Coordinates (Angstroms)
 Number     Number       Type             X           Y           Z
 ---------------------------------------------------------------------
      1         17           0       -1.715272   -0.017431    0.000009
      2          6           0        1.139906    0.005163   -0.000005
      3          1           0        0.738865   -0.503729    0.889548
      4          1           0        0.738855   -0.503811   -0.889507
      5          1           0        0.743817    1.025221   -0.000050
      6          8           0        2.574078    0.085603   -0.000017
      7          1           0        2.868692   -0.832942    0.000024
 ---------------------------------------------------------------------
                    Distance matrix (angstroms):
                    1          2          3          4          5
     1  Cl   0.000000
     2  C    2.855267   0.000000
     3  H    2.655288   1.100504   0.000000
     4  H    2.655286   1.100504   1.779054   0.000000
     5  H    2.671000   1.094260   1.768926   1.768926   0.000000
     6  O    4.290588   1.436427   2.122886   2.122886   2.057362
     7  H    4.655941   1.921229   2.331480   2.331479   2.822741
                    6          7
     6  O    0.000000
     7  H    0.964636   0.000000
 Symmetry turned off by external request.
 Stoichiometry    CH4ClO(1-)
 Framework group  C1[X(CH4ClO)]
 Deg. of freedom    15
 Full point group                 C1      NOp   1
 Rotational constants (GHZ):    127.2582544      2.1412061      2.1341399
 Standard basis: CC-pVDZ (5D, 7F)
    66 basis functions,   165 primitive gaussians,    69 cartesian basis functions
    18 alpha electrons       18 beta electrons
       nuclear repulsion energy        87.7329646713 Hartrees.
 NAtoms=    7 NActive=    7 NUniq=    7 SFac= 1.00D+00 NAtFMM=   60 NAOKFM=F Big=F
 Integral buffers will be    131072 words long.
 Raffenetti 1 integral format.
 Two-electron integral symmetry is turned off.
 One-electron integrals computed using PRISM.
 NBasis=    66 RedAO= T EigKep=  1.55D-02  NBF=    66
 NBsUse=    66 1.00D-06 EigRej= -1.00D+00 NBFU=    66
 Initial guess from the checkpoint file:  "/localscratch/rjackson.12297310.0/Gau-2585.chk"
 B after Tr=     0.000656    0.000073   -0.000000
         Rot=    1.000000   -0.000000   -0.000000   -0.000006 Ang=  -0.00 deg.
 ExpMin= 1.22D-01 ExpMax= 1.28D+05 ExpMxC= 1.24D+03 IAcc=3 IRadAn=         5 AccDes= 0.00D+00
 Harris functional with IExCor=  205 and IRadAn=       5 diagonalized for initial guess.
 HarFok:  IExCor=  205 AccDes= 0.00D+00 IRadAn=         5 IDoV= 1 UseB2=F ITyADJ=14
 ICtDFT=  3500011 ScaDFX=  1.000000  1.000000  1.000000  1.000000
 FoFCou: FMM=F IPFlag=           0 FMFlag=      100000 FMFlg1=           0
         NFxFlg=           0 DoJE=T BraDBF=F KetDBF=T FulRan=T
         wScrn=  0.000000 ICntrl=     500 IOpCl=  0 I1Cent=   200000004 NGrid=           0
         NMat0=    1 NMatS0=      1 NMatT0=    0 NMatD0=    1 NMtDS0=    0 NMtDT0=    0
 Symmetry not used in FoFCou.
 Keep R1 ints in memory in canonical form, NReq=3411108.
 Requested convergence on RMS density matrix=1.00D-08 within 256 cycles.
 Requested convergence on MAX density matrix=1.00D-06.
 Requested convergence on             energy=1.00D-06.
[...]
 LinEq1:  Iter= 10 NonCon=     1 RMS=9.97D-10 Max=1.03D-08 NDo=     1
 LinEq1:  Iter= 11 NonCon=     1 RMS=1.64D-10 Max=1.36D-09 NDo=     1
 LinEq1:  Iter= 12 NonCon=     0 RMS=3.08D-11 Max=2.86D-10 NDo=     1
 Linear equations converged to 1.000D-10 1.000D-09 after    12 iterations.
 End of Minotr F.D. properties file   721 does not exist.
 End of Minotr F.D. properties file   722 does not exist.
 End of Minotr F.D. properties file   788 does not exist.
 Symmetrizing basis deriv contribution to polar:
 IMax=3 JMax=2 DiffMx= 0.00D+00
 Calling FoFJK, ICntrl=  10002127 FMM=F ISym2X=0 I1Cent= 0 IOpClX= 0 NMat=1 NMatS=1 NMatT=0.
 -------------------------------------------------------------------
 Center     Atomic                   Forces (Hartrees/Bohr)
 Number     Number              X              Y              Z
 -------------------------------------------------------------------
      1       17          -0.000162482   -0.000170863    0.000000009
      2        6           0.000127793    0.000377847   -0.000000018
      3        1           0.000009467    0.000049915   -0.000014347
      4        1           0.000009467    0.000049917    0.000014343
      5        1           0.000067945   -0.000046914    0.000000002
      6        8           0.000007757   -0.000330583    0.000000015
      7        1          -0.000059948    0.000070681   -0.000000003
 -------------------------------------------------------------------
 Cartesian Forces:  Max     0.000377847 RMS     0.000128178
 IRC-IRC-IRC-IRC-IRC-IRC-IRC-IRC-IRC-IRC-IRC-IRC-IRC-IRC-IRC-IRC-IRC-IRC
 Pt 60 Step number   1 out of a maximum of  20
 Modified Bulirsch-Stoer Extrapolation Cycles:
    EPS =    0.000000333333333
 Maximum DWI energy   std dev =  0.000000026 at pt    63
 Maximum DWI gradient std dev =  0.195780782 at pt   153
 CORRECTOR INTEGRATION CONVERGENCE:
   Recorrection delta-x convergence threshold:    0.001826
   Delta-x Convergence Met
 Point Number:  60          Path Number:   1
   CHANGE IN THE REACTION COORDINATE =    0.07980
   NET REACTION COORDINATE UP TO THIS POINT =    4.76235
  # OF POINTS ALONG THE PATH =  60
  # OF STEPS =   1

 Calculating another point on the path.
 IRC-IRC-IRC-IRC-IRC-IRC-IRC-IRC-IRC-IRC-IRC-IRC-IRC-IRC-IRC-IRC-IRC-IRC
                          Input orientation:                          
 ---------------------------------------------------------------------
 Center     Atomic      Atomic             Coordinates (Angstroms)
 Number     Number       Type             X           Y           Z
 ---------------------------------------------------------------------
      1         17           0       -1.939109   -0.049942    0.000012
      2          6           0        1.394680    0.176477   -0.000015
      3          1           0        0.896124   -0.250754    0.885105
      4          1           0        0.896116   -0.250835   -0.885090
      5          1           0        1.202441    1.258338   -0.000063
      6          8           0        2.821497   -0.007862   -0.000013
      7          1           0        2.941531   -0.965373    0.000030
 ---------------------------------------------------------------------
                    Distance matrix (angstroms):
                    1          2          3          4          5
     1  Cl   0.000000
     2  C    3.341468   0.000000
     3  H    2.976955   1.102053   0.000000
     4  H    2.976955   1.102053   1.770195   0.000000
     5  H    3.403077   1.098808   1.776150   1.776150   0.000000
     6  O    4.760792   1.438676   2.132954   2.132954   2.055384
     7  H    4.965748   1.922646   2.340454   2.340454   2.822998
                    6          7
     6  O    0.000000
     7  H    0.965005   0.000000
 Symmetry turned off by external request.
 Stoichiometry    CH4ClO(1-)
 Framework group  C1[X(CH4ClO)]
 Deg. of freedom    15
 Full point group                 C1      NOp   1
 Rotational constants (GHZ):    108.8640879      1.7096826      1.7011413
 Standard basis: CC-pVDZ (5D, 7F)
    66 basis functions,   165 primitive gaussians,    69 cartesian basis functions
    18 alpha electrons       18 beta electrons
       nuclear repulsion energy        81.6782356439 Hartrees.
 NAtoms=    7 NActive=    7 NUniq=    7 SFac= 1.00D+00 NAtFMM=   60 NAOKFM=F Big=F
 Integral buffers will be    131072 words long.
 Raffenetti 1 integral format.
 Two-electron integral symmetry is turned off.
 One-electron integrals computed using PRISM.
 NBasis=    66 RedAO= T EigKep=  1.62D-02  NBF=    66
 NBsUse=    66 1.00D-06 EigRej= -1.00D+00 NBFU=    66
 Initial guess from the checkpoint file:  "/localscratch/rjackson.12297310.0/Gau-2585.chk"
 B after Tr=     0.000236    0.000923   -0.000000
         Rot=    1.000000    0.000000   -0.000000   -0.000006 Ang=  -0.00 deg.
 ExpMin= 1.22D-01 ExpMax= 1.28D+05 ExpMxC= 1.24D+03 IAcc=3 IRadAn=         5 AccDes= 0.00D+00
 Harris functional with IExCor=  205 and IRadAn=       5 diagonalized for initial guess.
 HarFok:  IExCor=  205 AccDes= 0.00D+00 IRadAn=         5 IDoV= 1 UseB2=F ITyADJ=14
 ICtDFT=  3500011 ScaDFX=  1.000000  1.000000  1.000000  1.000000
 FoFCou: FMM=F IPFlag=           0 FMFlag=      100000 FMFlg1=           0
         NFxFlg=           0 DoJE=T BraDBF=F KetDBF=T FulRan=T
         wScrn=  0.000000 ICntrl=     500 IOpCl=  0 I1Cent=   200000004 NGrid=           0
         NMat0=    1 NMatS0=      1 NMatT0=    0 NMatD0=    1 NMtDS0=    0 NMtDT0=    0
 Symmetry not used in FoFCou.
 Keep R1 ints in memory in canonical form, NReq=3410285.
 Requested convergence on RMS density matrix=1.00D-08 within 256 cycles.
 Requested convergence on MAX density matrix=1.00D-06.
 Requested convergence on             energy=1.00D-06.
 No special actions if energy rises.
 SCF Done:  E(RHF) =  -574.600052445     A.U. after    9 cycles
            NFock=  9  Conv=0.23D-08     -V/T= 2.0002
 ExpMin= 1.22D-01 ExpMax= 1.28D+05 ExpMxC= 1.24D+03 IAcc=3 IRadAn=         7 AccDes= 0.00D+00
 HarFok:  IExCor=  205 AccDes= 0.00D+00 IRadAn=         7 IDoV=-2 UseB2=F ITyADJ=14
 ICtDFT= 12500011 ScaDFX=  1.000000  1.000000  1.000000  1.000000
 Range of M.O.s used for correlation:     8    66
 NBasis=    66 NAE=    18 NBE=    18 NFC=     7 NFV=     0
 NROrb=     59 NOA=    11 NOB=    11 NVA=    48 NVB=    48
 Fully direct method using O(ONN) memory.
 JobTyp=1 Pass  1:  I=   8 to  18 NPSUse=  1 ParTrn=F ParDer=F DoDerP=T.
 Spin components of T(2) and E(2):
     alpha-alpha T2 =       0.1817783378D-01 E2=     -0.5885413516D-01
     alpha-beta  T2 =       0.1096862354D+00 E2=     -0.3587236179D+00
     beta-beta   T2 =       0.1817783378D-01 E2=     -0.5885413516D-01
 ANorm=    0.1070533467D+01
 E2 =    -0.4764318882D+00 EUMP2 =    -0.57507648433335D+03
          IDoAtm=1111111
          Differentiating once with respect to electric field.
                with respect to dipole field.
          Differentiating once with respect to nuclear coordinates.
 Keep R1 ints in memory in canonical form, NReq=3351567.
          There are     1 degrees of freedom in the 1st order CPHF.  IDoFFX=0 NUNeed=     1.
 LinEq1:  Iter=  0 NonCon=     1 RMS=3.55D-03 Max=3.13D-02 NDo=     1
 AX will form     1 AO Fock derivatives at one time.
 LinEq1:  Iter=  1 NonCon=     1 RMS=8.28D-04 Max=6.64D-03 NDo=     1
 LinEq1:  Iter=  2 NonCon=     1 RMS=1.99D-04 Max=1.44D-03 NDo=     1
 LinEq1:  Iter=  3 NonCon=     1 RMS=7.46D-05 Max=6.79D-04 NDo=     1
 LinEq1:  Iter=  4 NonCon=     1 RMS=1.79D-05 Max=1.77D-04 NDo=     1
 LinEq1:  Iter=  5 NonCon=     1 RMS=4.10D-06 Max=3.87D-05 NDo=     1
 LinEq1:  Iter=  6 NonCon=     1 RMS=9.49D-07 Max=7.89D-06 NDo=     1
 LinEq1:  Iter=  7 NonCon=     1 RMS=1.73D-07 Max=1.38D-06 NDo=     1
 LinEq1:  Iter=  8 NonCon=     1 RMS=3.04D-08 Max=2.35D-07 NDo=     1
 LinEq1:  Iter=  9 NonCon=     1 RMS=4.85D-09 Max=4.24D-08 NDo=     1
 LinEq1:  Iter= 10 NonCon=     1 RMS=9.98D-10 Max=1.03D-08 NDo=     1
 LinEq1:  Iter= 11 NonCon=     1 RMS=1.64D-10 Max=1.37D-09 NDo=     1
 LinEq1:  Iter= 12 NonCon=     0 RMS=3.08D-11 Max=2.85D-10 NDo=     1
 Linear equations converged to 1.000D-10 1.000D-09 after    12 iterations.
 End of Minotr F.D. properties file   721 does not exist.
 End of Minotr F.D. properties file   722 does not exist.
 End of Minotr F.D. properties file   788 does not exist.
 Symmetrizing basis deriv contribution to polar:
 IMax=3 JMax=2 DiffMx= 0.00D+00
 Calling FoFJK, ICntrl=  10002127 FMM=F ISym2X=0 I1Cent= 0 IOpClX= 0 NMat=1 NMatS=1 NMatT=0.
 -------------------------------------------------------------------
 Center     Atomic                   Forces (Hartrees/Bohr)
 Number     Number              X              Y              Z
 -------------------------------------------------------------------
      1       17          -0.000139156   -0.000164420    0.000000008
      2        6           0.000119969    0.000367328   -0.000000018
      3        1           0.000009794    0.000048088   -0.000014560
      4        1           0.000009794    0.000048090    0.000014555
      5        1           0.000065418   -0.000050613    0.000000002
      6        8          -0.000005572   -0.000317948    0.000000015
      7        1          -0.000060247    0.000069475   -0.000000003
 -------------------------------------------------------------------
 Cartesian Forces:  Max     0.000367328 RMS     0.000122936
 IRC-IRC-IRC-IRC-IRC-IRC-IRC-IRC-IRC-IRC-IRC-IRC-IRC-IRC-IRC-IRC-IRC-IRC
 Pt 61 Step number   1 out of a maximum of  20
 Modified Bulirsch-Stoer Extrapolation Cycles:
    EPS =    0.000000333333333
 Maximum DWI energy   std dev =  0.000000025 at pt    63
 Maximum DWI gradient std dev =  0.197999482 at pt   229
 CORRECTOR INTEGRATION CONVERGENCE:
   Recorrection delta-x convergence threshold:    0.001826
   Delta-x Convergence Met
 Point Number:  61          Path Number:   1
   CHANGE IN THE REACTION COORDINATE =    0.07980
   NET REACTION COORDINATE UP TO THIS POINT =    4.84215
  # OF POINTS ALONG THE PATH =  61
  # OF STEPS =   1

 PES minimum detected on this side of the pathway.
    Magnitude of the gradient =      0.0001493
 Calculation of FORWARD path complete.
 Reaction path calculation complete.
 
 Energies reported relative to the TS energy of        -575.068422
 --------------------------------------------------------------------------
    Summary of reaction path following
 --------------------------------------------------------------------------
                        Energy    RxCoord
   1                    0.00000   0.00000
   2                   -0.00019   0.05421
   3                   -0.00057   0.13401
   4                   -0.00095   0.21382
   5                   -0.00131   0.29362
   6                   -0.00165   0.37342
   7                   -0.00199   0.45323
   8                   -0.00231   0.53303
   9                   -0.00261   0.61283
  10                   -0.00291   0.69264
  11                   -0.00319   0.77244
  12                   -0.00346   0.85224
  13                   -0.00372   0.93205
  14                   -0.00396   1.01185
  15                   -0.00420   1.09165
  16                   -0.00443   1.17146
  17                   -0.00464   1.25126
  18                   -0.00485   1.33107
  19                   -0.00505   1.41087
  20                   -0.00524   1.49067
  21                   -0.00542   1.57048
  22                   -0.00559   1.65028
  23                   -0.00575   1.73008
  24                   -0.00590   1.80989
  25                   -0.00605   1.88969
  26                   -0.00619   1.96949
  27                   -0.00632   2.04930
  28                   -0.00644   2.12910
  29                   -0.00656   2.20890
  30                   -0.00667   2.28871
  31                   -0.00678   2.36851
  32                   -0.00688   2.44831
  33                   -0.00697   2.52812
  34                   -0.00706   2.60792
  35                   -0.00714   2.68772
  36                   -0.00722   2.76752
  37                   -0.00729   2.84733
  38                   -0.00736   2.92713
  39                   -0.00742   3.00693
  40                   -0.00748   3.08673
  41                   -0.00753   3.16653
  42                   -0.00758   3.24633
  43                   -0.00762   3.32613
  44                   -0.00767   3.40593
  45                   -0.00771   3.48572
  46                   -0.00774   3.56552
  47                   -0.00778   3.64531
  48                   -0.00781   3.72510
  49                   -0.00783   3.80489
  50                   -0.00786   3.88468
  51                   -0.00788   3.96446
  52                   -0.00791   4.04425
  53                   -0.00793   4.12403
  54                   -0.00794   4.20381
  55                   -0.00796   4.28360
  56                   -0.00798   4.36339
  57                   -0.00799   4.44318
  58                   -0.00801   4.52297
  59                   -0.00802   4.60276
  60                   -0.00804   4.68256
  61                   -0.00805   4.76235
  62                   -0.00806   4.84215
 --------------------------------------------------------------------------
 
 Total number of points:                   61
 Total number of gradient calculations:    63
 Total number of Hessian calculations:      1
 IRC-IRC-IRC-IRC-IRC-IRC-IRC-IRC-IRC-IRC-IRC-IRC-IRC-IRC-IRC-IRC-IRC-IRC
                          Input orientation:                          
 ---------------------------------------------------------------------
 Center     Atomic      Atomic             Coordinates (Angstroms)
 Number     Number       Type             X           Y           Z
 ---------------------------------------------------------------------
      1         17           0       -1.939109   -0.049942    0.000012
      2          6           0        1.394680    0.176477   -0.000015
      3          1           0        0.896124   -0.250754    0.885105
      4          1           0        0.896116   -0.250835   -0.885090
      5          1           0        1.202441    1.258338   -0.000063
      6          8           0        2.821497   -0.007862   -0.000013
      7          1           0        2.941531   -0.965373    0.000030
 ---------------------------------------------------------------------
                    Distance matrix (angstroms):
                    1          2          3          4          5
     1  Cl   0.000000
     2  C    3.341468   0.000000
     3  H    2.976955   1.102053   0.000000
     4  H    2.976955   1.102053   1.770195   0.000000
     5  H    3.403077   1.098808   1.776150   1.776150   0.000000
     6  O    4.760792   1.438676   2.132954   2.132954   2.055384
     7  H    4.965748   1.922646   2.340454   2.340454   2.822998
                    6          7
     6  O    0.000000
     7  H    0.965005   0.000000
 Symmetry turned off by external request.
 Stoichiometry    CH4ClO(1-)
 Framework group  C1[X(CH4ClO)]
 Deg. of freedom    15
 Full point group                 C1      NOp   1
 Rotational constants (GHZ):    108.8640879      1.7096826      1.7011413

 **********************************************************************

            Population analysis using the SCF density.

 **********************************************************************

 Alpha  occ. eigenvalues -- -104.47767 -20.41914 -11.12005 -10.19890  -7.66519
 Alpha  occ. eigenvalues --   -7.66511  -7.66509  -1.21168  -0.76346  -0.71176
 Alpha  occ. eigenvalues --   -0.53835  -0.45880  -0.43736  -0.35389  -0.30154
 Alpha  occ. eigenvalues --   -0.13181  -0.13152  -0.13148
 Alpha virt. eigenvalues --    0.31280   0.37350   0.42706   0.43526   0.52859
 Alpha virt. eigenvalues --    0.78224   0.78974   0.86959   0.94198   1.00594
 Alpha virt. eigenvalues --    1.03366   1.04809   1.07186   1.08814   1.09009
 Alpha virt. eigenvalues --    1.21292   1.27745   1.29214   1.29895   1.32512
 Alpha virt. eigenvalues --    1.32522   1.33005   1.33715   1.38561   1.45981
 Alpha virt. eigenvalues --    1.46993   1.57088   1.70933   1.79377   1.84067
 Alpha virt. eigenvalues --    2.03016   2.07807   2.09254   2.11259   2.18617
 Alpha virt. eigenvalues --    2.28087   2.46608   2.50585   2.56059   2.62925
 Alpha virt. eigenvalues --    2.89961   2.90176   2.92267   3.43979   3.50522
 Alpha virt. eigenvalues --    3.58019   3.71299   4.20838
          Condensed to atoms (all electrons):
               1          2          3          4          5          6
     1  Cl  17.938518  -0.011668   0.013722   0.013722   0.004750   0.000191
     2  C   -0.011668   4.394435   0.414594   0.414594   0.407342   0.281623
     3  H    0.013722   0.414594   0.625833  -0.031834  -0.026579  -0.026953
     4  H    0.013722   0.414594  -0.031834   0.625833  -0.026579  -0.026953
     5  H    0.004750   0.407342  -0.026579  -0.026579   0.631962  -0.022391
     6  O    0.000191   0.281623  -0.026953  -0.026953  -0.022391   7.871539
     7  H   -0.000035  -0.048392  -0.005048  -0.005048   0.007491   0.354134
               7
     1  Cl  -0.000035
     2  C   -0.048392
     3  H   -0.005048
     4  H   -0.005048
     5  H    0.007491
     6  O    0.354134
     7  H    0.550513
 Mulliken charges:
               1
     1  Cl  -0.959200
     2  C    0.147471
     3  H    0.036264
     4  H    0.036264
     5  H    0.024004
     6  O   -0.431189
     7  H    0.146386
 Sum of Mulliken charges =  -1.00000
 Mulliken charges with hydrogens summed into heavy atoms:
               1
     1  Cl  -0.959200
     2  C    0.244004
     6  O   -0.284804
 APT charges:
               1
     1  Cl  -0.941782
     2  C   -0.329717
     3  H    0.079070
     4  H    0.079070
     5  H    0.185038
     6  O   -0.417567
     7  H    0.345887
 Sum of APT charges =  -1.00000
 APT charges with hydrogens summed into heavy atoms:
               1
     1  Cl  -0.941782
     2  C    0.013462
     6  O   -0.071680
 Electronic spatial extent (au):  <R**2>=            637.2172
 Charge=             -1.0000 electrons
 Dipole moment (field-independent basis, Debye):
    X=              6.7154    Y=             -1.0977    Z=              0.0000  Tot=              6.8045
 Quadrupole moment (field-independent basis, Debye-Ang):
   XX=            -54.8082   YY=            -26.7580   ZZ=            -28.9880
   XY=             -4.8513   XZ=              0.0003   YZ=             -0.0001
 Traceless Quadrupole moment (field-independent basis, Debye-Ang):
   XX=            -17.9568   YY=             10.0934   ZZ=              7.8634
   XY=             -4.8513   XZ=              0.0003   YZ=             -0.0001
 Octapole moment (field-independent basis, Debye-Ang**2):
  XXX=             13.6544  YYY=             -1.5980  ZZZ=              0.0000  XYY=              8.8151
  XXY=            -13.2205  XXZ=              0.0006  XZZ=              2.0532  YZZ=             -0.5636
  YYZ=             -0.0000  XYZ=             -0.0002
 Hexadecapole moment (field-independent basis, Debye-Ang**3):
 XXXX=           -892.6593 YYYY=            -37.9964 ZZZZ=            -36.9842 XXXY=            -50.8905
 XXXZ=              0.0047 YYYX=            -10.6092 YYYZ=             -0.0000 ZZZX=              0.0020
 ZZZY=              0.0002 XXYY=           -114.8011 XXZZ=           -133.1952 YYZZ=            -13.2377
 XXYZ=             -0.0006 YYXZ=              0.0008 ZZXY=             -2.3351
 N-N= 8.167823564394D+01 E-N=-1.538264460982D+03  KE= 5.744734852054D+02
  Exact polarizability:   0.000   0.000   0.000   0.000   0.000   0.000
 Approx polarizability:  23.811  -0.457  20.349  -0.000  -0.000  18.072

 This type of calculation cannot be archived.


 LENDING MONEY TO FRIENDS CAUSES THEM TO LOSE THEIR MEMORIES.

    --  PETER'S THEORY OF RECIPROCAL INHIBITION OF FISCAL RECALL
 Job cpu time:       0 days  0 hours  6 minutes 31.2 seconds.
 File lengths (MBytes):  RWF=    214 Int=      0 D2E=      0 Chk=      2 Scr=      1
 Normal termination of Gaussian 09 at Tue Mar  5 10:48:37 2019.
