 Entering Gaussian System, Link 0=g09
 Initial command:
 /opt/software/gaussian/g09.e01/l1.exe "/localscratch/rjackson.18103347.0/Gau-37259.inp" -scrdir="/localscratch/rjackson.18103347.0/"
 Entering Link 1 = /opt/software/gaussian/g09.e01/l1.exe PID=     37260.
  
 Copyright (c) 1988,1990,1992,1993,1995,1998,2003,2009,2015,
            Gaussian, Inc.  All Rights Reserved.
  
 This is part of the Gaussian(R) 09 program.  It is based on
 the Gaussian(R) 03 system (copyright 2003, Gaussian, Inc.),
 the Gaussian(R) 98 system (copyright 1998, Gaussian, Inc.),
 the Gaussian(R) 94 system (copyright 1995, Gaussian, Inc.),
 the Gaussian 92(TM) system (copyright 1992, Gaussian, Inc.),
 the Gaussian 90(TM) system (copyright 1990, Gaussian, Inc.),
 the Gaussian 88(TM) system (copyright 1988, Gaussian, Inc.),
 the Gaussian 86(TM) system (copyright 1986, Carnegie Mellon
 University), and the Gaussian 82(TM) system (copyright 1983,
 Carnegie Mellon University). Gaussian is a federally registered
 trademark of Gaussian, Inc.
  
 This software contains proprietary and confidential information,
 including trade secrets, belonging to Gaussian, Inc.
  
 This software is provided under written license and may be
 used, copied, transmitted, or stored only in accord with that
 written license.
  
 The following legend is applicable only to US Government
 contracts under FAR:
  
                    RESTRICTED RIGHTS LEGEND
  
 Use, reproduction and disclosure by the US Government is
 subject to restrictions as set forth in subparagraphs (a)
 and (c) of the Commercial Computer Software - Restricted
 Rights clause in FAR 52.227-19.
  
 Gaussian, Inc.
 340 Quinnipiac St., Bldg. 40, Wallingford CT 06492
  
  
 ---------------------------------------------------------------
 Warning -- This program may not be used in any manner that
 competes with the business of Gaussian, Inc. or will provide
 assistance to any competitor of Gaussian, Inc.  The licensee
 of this program is prohibited from giving any competitor of
 Gaussian, Inc. access to this program.  By using this program,
 the user acknowledges that Gaussian, Inc. is engaged in the
 business of creating and licensing software in the field of
 computational chemistry and represents and warrants to the
 licensee that it is not a competitor of Gaussian, Inc. and that
 it will not use this program in any manner prohibited above.
 ---------------------------------------------------------------
  

 Cite this work as:
 Gaussian 09, Revision E.01,
 M. J. Frisch, G. W. Trucks, H. B. Schlegel, G. E. Scuseria, 
 M. A. Robb, J. R. Cheeseman, G. Scalmani, V. Barone, B. Mennucci, 
 G. A. Petersson, H. Nakatsuji, M. Caricato, X. Li, H. P. Hratchian, 
 A. F. Izmaylov, J. Bloino, G. Zheng, J. L. Sonnenberg, M. Hada, 
 M. Ehara, K. Toyota, R. Fukuda, J. Hasegawa, M. Ishida, T. Nakajima, 
 Y. Honda, O. Kitao, H. Nakai, T. Vreven, J. A. Montgomery, Jr., 
 J. E. Peralta, F. Ogliaro, M. Bearpark, J. J. Heyd, E. Brothers, 
 K. N. Kudin, V. N. Staroverov, T. Keith, R. Kobayashi, J. Normand, 
 K. Raghavachari, A. Rendell, J. C. Burant, S. S. Iyengar, J. Tomasi, 
 M. Cossi, N. Rega, J. M. Millam, M. Klene, J. E. Knox, J. B. Cross, 
 V. Bakken, C. Adamo, J. Jaramillo, R. Gomperts, R. E. Stratmann, 
 O. Yazyev, A. J. Austin, R. Cammi, C. Pomelli, J. W. Ochterski, 
 R. L. Martin, K. Morokuma, V. G. Zakrzewski, G. A. Voth, 
 P. Salvador, J. J. Dannenberg, S. Dapprich, A. D. Daniels, 
 O. Farkas, J. B. Foresman, J. V. Ortiz, J. Cioslowski, 
 and D. J. Fox, Gaussian, Inc., Wallingford CT, 2013.
 
 ******************************************
 Gaussian 09:  EM64L-G09RevE.01 30-Nov-2015
                12-Mar-2019 
 ******************************************
 ----------------------------------------------------------------------
 # mp2/cc-PVDZ irc(forward, calcfc, maxpoints=2, stepsize=10, tight) in
 tegral(grid=superfine) scf(maxcyc=256)
 ----------------------------------------------------------------------
 1/7=10,10=4,18=10,22=1,38=1,39=10,42=2,44=3/1,23;
 2/12=2,17=6,18=5,29=1,40=1/2;
 3/5=16,11=9,16=1,25=1,30=1,71=2,75=-7,140=1/1,2,3;
 4//1;
 5/5=2,7=256,38=5/2;
 8/6=3,8=1,10=1,19=11,30=-1/1;
 9/15=3,16=-3/6;
 11/6=1,8=1,15=11,17=12,24=-1,27=1,28=-2,29=300,32=6,42=3/1,2,10;
 10/6=2,21=1/2;
 8/6=4,8=1,10=1,19=11,30=-1/11,4;
 10/5=1,20=4/2;
 11/12=2,14=11,16=1,17=2,28=-2,42=3/2,10,12;
 6/7=2,8=2,9=2,10=2/1;
 7/10=1,12=2,25=1,44=2/1,2,3,16;
 1/7=10,10=4,18=10,22=1,39=10,42=2,44=3/23(2);
 2/29=1/2;
 99/5=20/99;
 2/29=1/2;
 3/5=16,11=9,16=1,25=1,30=1,71=2,75=-7,140=1/1,2,3;
 4/5=5,16=3,69=1/1;
 5/5=2,7=256,38=5/2;
 8/6=3,8=1,10=1,19=11,30=-1/1;
 9/15=3,16=-3/6;
 11/6=1,8=1,15=11,17=12,24=-1,27=1,28=-2,29=300,32=6,42=3/1,2,10;
 10/6=2,21=1/2;
 8/6=4,8=1,10=1,19=11,30=-1/11,4;
 10/5=1,20=4/2;
 11/12=2,14=11,16=1,17=2,28=-2,42=3/2,10,12;
 7/10=1,12=2,25=1,44=2/1,2,3,16;
 1/7=10,18=10,22=1,39=10,42=2,44=3/23(-12);
 2/29=1/2;
 6/7=2,8=2,9=2,10=2/1;
 99/5=20/99;
 ------------------------
 OH-chloromethane_product
 ------------------------
 Symbolic Z-matrix:
 Charge = -1 Multiplicity = 1
 Cl                   -1.59492  -0.17223  -0.05233 
 C                     0.33708   0.03751   0.02455 
 H                     0.62481  -0.46667   0.94615 
 H                     0.79663  -0.39477  -0.86283 
 H                     0.48817   1.11628   0.07803 
 O                     2.70246   0.03846  -0.22828 
 H                     2.75706  -0.87842   0.09471 
 
 IRC-IRC-IRC-IRC-IRC-IRC-IRC-IRC-IRC-IRC-IRC-IRC-IRC-IRC-IRC-IRC-IRC-IRC
 ------------------------------------------------------------------------
 INPUT DATA FOR L123
 ------------------------------------------------------------------------
 GENERAL PARAMETERS:
 Rxn path following direction = Forward
 Maximum points per path      =   2
 Step size                    =   0.100 bohr
 Integration scheme           = HPC                                 
    Redo corrector integration= Yes                                 
    DWI Weight Power          =  2
    DWI will use Hessian update vectors when possible.
    Max correction cycles     =  20
 Initial Hessian              = CalcFC
 Hessian evaluation           = All updating
 Hessian updating method      = Bofill                              
 ------------------------------------------------------------------------
 IRC-IRC-IRC-IRC-IRC-IRC-IRC-IRC-IRC-IRC-IRC-IRC-IRC-IRC-IRC-IRC-IRC-IRC
                          Input orientation:                          
 ---------------------------------------------------------------------
 Center     Atomic      Atomic             Coordinates (Angstroms)
 Number     Number       Type             X           Y           Z
 ---------------------------------------------------------------------
      1         17           0       -1.594915   -0.172227   -0.052327
      2          6           0        0.337081    0.037514    0.024553
      3          1           0        0.624810   -0.466670    0.946153
      4          1           0        0.796626   -0.394766   -0.862834
      5          1           0        0.488174    1.116279    0.078027
      6          8           0        2.702459    0.038461   -0.228277
      7          1           0        2.757059   -0.878419    0.094712
 ---------------------------------------------------------------------
                    Distance matrix (angstroms):
                    1          2          3          4          5
     1  Cl   0.000000
     2  C    1.944868   0.000000
     3  H    2.451701   1.089191   0.000000
     4  H    2.534939   1.088808   1.818550   0.000000
     5  H    2.452855   1.090606   1.810536   1.806549   0.000000
     6  O    4.306132   2.378852   2.439481   2.054884   2.481647
     7  H    4.411350   2.588465   2.332590   2.234751   3.021082
                    6          7
     6  O    0.000000
     7  H    0.973639   0.000000
 Symmetry turned off by external request.
 Stoichiometry    CH4ClO(1-)
 Framework group  C1[X(CH4ClO)]
 Deg. of freedom    15
 Full point group                 C1      NOp   1
 Rotational constants (GHZ):    107.7014036      2.3136304      2.3066233
 Standard basis: CC-pVDZ (5D, 7F)
    66 basis functions,   165 primitive gaussians,    69 cartesian basis functions
    18 alpha electrons       18 beta electrons
       nuclear repulsion energy        89.4021524298 Hartrees.
 NAtoms=    7 NActive=    7 NUniq=    7 SFac= 1.00D+00 NAtFMM=   60 NAOKFM=F Big=F
 Integral buffers will be    131072 words long.
 Raffenetti 1 integral format.
 Two-electron integral symmetry is turned off.
 One-electron integrals computed using PRISM.
 NBasis=    66 RedAO= T EigKep=  1.94D-02  NBF=    66
 NBsUse=    66 1.00D-06 EigRej= -1.00D+00 NBFU=    66
 ExpMin= 1.22D-01 ExpMax= 1.28D+05 ExpMxC= 1.24D+03 IAcc=3 IRadAn=         7 AccDes= 0.00D+00
 Harris functional with IExCor=  205 and IRadAn=       7 diagonalized for initial guess.
 HarFok:  IExCor=  205 AccDes= 0.00D+00 IRadAn=         7 IDoV= 1 UseB2=F ITyADJ=14
 ICtDFT=  3500011 ScaDFX=  1.000000  1.000000  1.000000  1.000000
 FoFCou: FMM=F IPFlag=           0 FMFlag=      100000 FMFlg1=           0
         NFxFlg=           0 DoJE=T BraDBF=F KetDBF=T FulRan=T
         wScrn=  0.000000 ICntrl=     500 IOpCl=  0 I1Cent=   200000004 NGrid=           0
         NMat0=    1 NMatS0=      1 NMatT0=    0 NMatD0=    1 NMtDS0=    0 NMtDT0=    0
 Symmetry not used in FoFCou.
 Keep R1 ints in memory in canonical form, NReq=3411413.
 Requested convergence on RMS density matrix=1.00D-08 within 256 cycles.
 Requested convergence on MAX density matrix=1.00D-06.
 Requested convergence on             energy=1.00D-06.
 No special actions if energy rises.
 SCF Done:  E(RHF) =  -574.487237849     A.U. after   13 cycles
            NFock= 13  Conv=0.51D-08     -V/T= 1.9999
 ExpMin= 1.22D-01 ExpMax= 1.28D+05 ExpMxC= 1.24D+03 IAcc=3 IRadAn=         7 AccDes= 0.00D+00
 HarFok:  IExCor=  205 AccDes= 0.00D+00 IRadAn=         7 IDoV=-2 UseB2=F ITyADJ=14
 ICtDFT= 12500011 ScaDFX=  1.000000  1.000000  1.000000  1.000000
 Range of M.O.s used for correlation:     8    66
 NBasis=    66 NAE=    18 NBE=    18 NFC=     7 NFV=     0
 NROrb=     59 NOA=    11 NOB=    11 NVA=    48 NVB=    48
 Disk-based method using ON**2 memory for 11 occupieds at a time.
 Permanent disk used for amplitudes=      919080 words.
 Estimated scratch disk usage=     7093296 words.
 Actual    scratch disk usage=     7093296 words.
 JobTyp=1 Pass  1:  I=   8 to  18 NPSUse=  1 ParTrn=F ParDer=F DoDerP=T.
 (rs|ai) integrals will be sorted in core.
 Spin components of T(2) and E(2):
     alpha-alpha T2 =       0.2038451773D-01 E2=     -0.6144127932D-01
     alpha-beta  T2 =       0.1197385665D+00 E2=     -0.3688742981D+00
     beta-beta   T2 =       0.2038451773D-01 E2=     -0.6144127932D-01
 ANorm=    0.1077268584D+01
 E2 =    -0.4917568567D+00 EUMP2 =    -0.57497899470541D+03
 G2DrvN: will do     8 centers at a time, making    1 passes.
 Calling FoFCou, ICntrl=  3107 FMM=F I1Cent=   0 AccDes= 0.00D+00.
 End of G2Drv F.D. properties file   721 does not exist.
 End of G2Drv F.D. properties file   722 does not exist.
 End of G2Drv F.D. properties file   788 does not exist.
          IDoAtm=1111111
          Differentiating once with respect to electric field.
                with respect to dipole field.
          Differentiating once with respect to nuclear coordinates.
 Keep R1 ints in memory in canonical form, NReq=3351898.
          There are    24 degrees of freedom in the 1st order CPHF.  IDoFFX=6 NUNeed=    24.
     21 vectors produced by pass  0 Test12= 3.60D-15 4.17D-09 XBig12= 1.51D+01 2.16D+00.
 AX will form    21 AO Fock derivatives at one time.
     21 vectors produced by pass  1 Test12= 3.60D-15 4.17D-09 XBig12= 7.17D-01 2.37D-01.
     21 vectors produced by pass  2 Test12= 3.60D-15 4.17D-09 XBig12= 3.90D-02 4.20D-02.
     21 vectors produced by pass  3 Test12= 3.60D-15 4.17D-09 XBig12= 4.17D-04 3.49D-03.
     21 vectors produced by pass  4 Test12= 3.60D-15 4.17D-09 XBig12= 2.65D-06 4.13D-04.
     21 vectors produced by pass  5 Test12= 3.60D-15 4.17D-09 XBig12= 1.03D-08 2.25D-05.
     16 vectors produced by pass  6 Test12= 3.60D-15 4.17D-09 XBig12= 5.80D-11 1.15D-06.
      3 vectors produced by pass  7 Test12= 3.60D-15 4.17D-09 XBig12= 4.13D-13 9.25D-08.
      2 vectors produced by pass  8 Test12= 3.60D-15 4.17D-09 XBig12= 2.36D-15 6.79D-09.
 InvSVY:  IOpt=1 It=  1 EMax= 2.22D-15
 Solved reduced A of dimension   147 with    24 vectors.
 End of Minotr F.D. properties file   721 does not exist.
 End of Minotr F.D. properties file   722 does not exist.
 End of Minotr F.D. properties file   788 does not exist.
 MDV=    33554432.
 Form MO integral derivatives with frozen-active canonical formalism.
 Discarding MO integrals.
 Reordered first order wavefunction length =      1492992
 In DefCFB: NBatch=  1 ICI= 18 ICA= 48 LFMax= 18
            Large arrays: LIAPS=    15738624 LIARS=     7928928 words.
 Semi-Direct transformation.
 ModeAB=           4 MOrb=            18 LenV=      33288692
 LASXX=      2037645 LTotXX=     2037645 LenRXX=     4178286
 LTotAB=     2140641 MaxLAS=     2865456 LenRXY=           0
 NonZer=     6215931 LenScr=    10097152 LnRSAI=     2865456
 LnScr1=     5014016 LExtra=           0 Total=     22154910
 MaxDsk=          -1 SrtSym=           T ITran=            4
 JobTyp=0 Pass  1:  I=   1 to  18.
 (rs|ai) integrals will be sorted in core.
 Spin components of T(2) and E(2):
     alpha-alpha T2 =       0.2038451773D-01 E2=     -0.6144127932D-01
     alpha-beta  T2 =       0.1197385665D+00 E2=     -0.3688742981D+00
     beta-beta   T2 =       0.2038451773D-01 E2=     -0.6144127932D-01
 ANorm=    0.1523487842D+01
 E2 =    -0.4917568567D+00 EUMP2 =    -0.57497899470541D+03
          IDoAtm=1111111
          Differentiating once with respect to electric field.
                with respect to dipole field.
          Differentiating once with respect to nuclear coordinates.
          There are     1 degrees of freedom in the 1st order CPHF.  IDoFFX=0 NUNeed=     1.
 LinEq1:  Iter=  0 NonCon=     1 RMS=8.11D-03 Max=1.19D-01 NDo=     1
 LinEq1:  Iter=  1 NonCon=     1 RMS=1.85D-03 Max=1.80D-02 NDo=     1
 LinEq1:  Iter=  2 NonCon=     1 RMS=6.04D-04 Max=6.95D-03 NDo=     1
 LinEq1:  Iter=  3 NonCon=     1 RMS=2.05D-04 Max=2.24D-03 NDo=     1
 LinEq1:  Iter=  4 NonCon=     1 RMS=6.90D-05 Max=6.97D-04 NDo=     1
 LinEq1:  Iter=  5 NonCon=     1 RMS=1.74D-05 Max=1.65D-04 NDo=     1
 LinEq1:  Iter=  6 NonCon=     1 RMS=4.42D-06 Max=3.70D-05 NDo=     1
 LinEq1:  Iter=  7 NonCon=     1 RMS=1.00D-06 Max=8.80D-06 NDo=     1
 LinEq1:  Iter=  8 NonCon=     1 RMS=2.46D-07 Max=2.06D-06 NDo=     1
 LinEq1:  Iter=  9 NonCon=     1 RMS=5.52D-08 Max=6.10D-07 NDo=     1
 LinEq1:  Iter= 10 NonCon=     1 RMS=1.17D-08 Max=1.24D-07 NDo=     1
 LinEq1:  Iter= 11 NonCon=     1 RMS=1.82D-09 Max=1.22D-08 NDo=     1
 LinEq1:  Iter= 12 NonCon=     1 RMS=3.28D-10 Max=2.95D-09 NDo=     1
 LinEq1:  Iter= 13 NonCon=     0 RMS=7.66D-11 Max=5.36D-10 NDo=     1
 Linear equations converged to 1.000D-10 1.000D-09 after    13 iterations.
 End of Minotr F.D. properties file   721 does not exist.
 End of Minotr F.D. properties file   722 does not exist.
 End of Minotr F.D. properties file   788 does not exist.
 Symmetrizing basis deriv contribution to polar:
 IMax=3 JMax=2 DiffMx= 0.00D+00
 G2DrvN: will do     8 centers at a time, making    1 passes.
 Calling FoFCou, ICntrl=  3107 FMM=F I1Cent=   0 AccDes= 0.00D+00.
 End of G2Drv F.D. properties file   721 does not exist.
 End of G2Drv F.D. properties file   722 does not exist.
 End of G2Drv F.D. properties file   788 does not exist.
 R2 and R3 integrals will be kept in memory, NReq=     6654640.
 DD1Dir will call FoFMem   1 times, MxPair=       342
 NAB=   171 NAA=     0 NBB=     0.
 Discarding MO integrals.

 **********************************************************************

            Population analysis using the SCF density.

 **********************************************************************

 Alpha  occ. eigenvalues -- -104.62650 -20.17142 -11.11874 -10.35249  -7.81965
 Alpha  occ. eigenvalues --   -7.81731  -7.81730  -0.91575  -0.90157  -0.72460
 Alpha  occ. eigenvalues --   -0.42186  -0.41575  -0.32734  -0.26185  -0.25904
 Alpha  occ. eigenvalues --   -0.24615  -0.11573  -0.10354
 Alpha virt. eigenvalues --    0.35298   0.39141   0.42168   0.45014   0.48071
 Alpha virt. eigenvalues --    0.76558   0.77317   0.88414   0.94993   0.95442
 Alpha virt. eigenvalues --    0.97265   1.03203   1.03698   1.05371   1.10779
 Alpha virt. eigenvalues --    1.14172   1.17226   1.18813   1.18975   1.20281
 Alpha virt. eigenvalues --    1.36367   1.43868   1.46408   1.58104   1.61468
 Alpha virt. eigenvalues --    1.65533   1.73664   1.82366   1.85876   1.87908
 Alpha virt. eigenvalues --    2.01859   2.06090   2.14278   2.18910   2.22027
 Alpha virt. eigenvalues --    2.29026   2.48257   2.60825   2.63764   2.76531
 Alpha virt. eigenvalues --    2.93288   2.94762   2.95499   3.36602   3.44600
 Alpha virt. eigenvalues --    3.66979   3.67685   4.40182
          Condensed to atoms (all electrons):
               1          2          3          4          5          6
     1  Cl  17.470780   0.090023  -0.034540  -0.027370  -0.035996   0.002384
     2  C    0.090023   4.652855   0.414239   0.378314   0.420674   0.016737
     3  H   -0.034540   0.414239   0.592567  -0.027094  -0.017980   0.009929
     4  H   -0.027370   0.378314  -0.027094   0.552729  -0.018484   0.044886
     5  H   -0.035996   0.420674  -0.017980  -0.018484   0.572340   0.005194
     6  O    0.002384   0.016737   0.009929   0.044886   0.005194   8.477531
     7  H   -0.000674  -0.010843   0.001386  -0.008131  -0.001401   0.295013
               7
     1  Cl  -0.000674
     2  C   -0.010843
     3  H    0.001386
     4  H   -0.008131
     5  H   -0.001401
     6  O    0.295013
     7  H    0.688668
 Mulliken charges:
               1
     1  Cl  -0.464607
     2  C    0.038002
     3  H    0.061493
     4  H    0.105150
     5  H    0.075653
     6  O   -0.851674
     7  H    0.035983
 Sum of Mulliken charges =  -1.00000
 Mulliken charges with hydrogens summed into heavy atoms:
               1
     1  Cl  -0.464607
     2  C    0.280298
     6  O   -0.815691
 APT charges:
               1
     1  Cl  -0.918072
     2  C    0.902838
     3  H   -0.030192
     4  H    0.074606
     5  H   -0.018667
     6  O   -1.018185
     7  H    0.007671
 Sum of APT charges =  -1.00000
 APT charges with hydrogens summed into heavy atoms:
               1
     1  Cl  -0.918072
     2  C    0.928586
     6  O   -1.010514
 Electronic spatial extent (au):  <R**2>=            503.7494
 Charge=             -1.0000 electrons
 Dipole moment (field-independent basis, Debye):
    X=             -6.2121    Y=             -0.5394    Z=              1.3338  Tot=              6.3765
 Quadrupole moment (field-independent basis, Debye-Ang):
   XX=            -63.8557   YY=            -26.8981   ZZ=            -28.4140
   XY=             -3.6030   XZ=              3.1219   YZ=             -0.2868
 Traceless Quadrupole moment (field-independent basis, Debye-Ang):
   XX=            -24.1331   YY=             12.8245   ZZ=             11.3086
   XY=             -3.6030   XZ=              3.1219   YZ=             -0.2868
 Octapole moment (field-independent basis, Debye-Ang**2):
  XXX=            -78.0159  YYY=              7.7133  ZZZ=              5.9859  XYY=              2.9106
  XXY=             -5.1092  XXZ=             11.2799  XZZ=             -1.1819  YZZ=              1.8704
  YYZ=              2.0045  XYZ=             -0.5931
 Hexadecapole moment (field-independent basis, Debye-Ang**3):
 XXXX=           -804.4575 YYYY=            -38.5780 ZZZZ=            -37.2605 XXXY=            -30.6994
 XXXZ=             33.7521 YYYX=             -9.5619 YYYZ=             -0.2931 ZZZX=              8.6468
 ZZZY=             -0.3478 XXYY=            -94.8611 XXZZ=           -105.5712 YYZZ=            -12.9333
 XXYZ=             -1.7177 YYXZ=              2.7372 ZZXY=             -3.0853
 N-N= 8.940215242983D+01 E-N=-1.553471546394D+03  KE= 5.745259516660D+02
  Exact polarizability:  71.153  -0.541  23.651   0.042  -1.077  21.049
 Approx polarizability:  39.622   1.152  21.656   0.186  -1.277  18.567
 Calling FoFJK, ICntrl=  10100127 FMM=F ISym2X=0 I1Cent= 0 IOpClX= 0 NMat=1 NMatS=1 NMatT=0.
 -------------------------------------------------------------------
 Center     Atomic                   Forces (Hartrees/Bohr)
 Number     Number              X              Y              Z
 -------------------------------------------------------------------
      1       17           0.000000255    0.000000064    0.000000014
      2        6          -0.000000481   -0.000001719    0.000000137
      3        1          -0.000000421    0.000000483   -0.000000338
      4        1          -0.000000268    0.000000067    0.000000228
      5        1           0.000000606    0.000000588    0.000000110
      6        8           0.000000781    0.000000395   -0.000000008
      7        1          -0.000000472    0.000000122   -0.000000143
 -------------------------------------------------------------------
 Cartesian Forces:  Max     0.000001719 RMS     0.000000520
 IRC-IRC-IRC-IRC-IRC-IRC-IRC-IRC-IRC-IRC-IRC-IRC-IRC-IRC-IRC-IRC-IRC-IRC
          ******** Start new reaction path calculation ********
 Supplied step size of   0.1000 bohr.
    Integration on MW PES will use step size of   0.1913 sqrt(amu)*bohr.
 Point Number:   0          Path Number:   1
 Calculating another point on the path.
 IRC-IRC-IRC-IRC-IRC-IRC-IRC-IRC-IRC-IRC-IRC-IRC-IRC-IRC-IRC-IRC-IRC-IRC
                          Input orientation:                          
 ---------------------------------------------------------------------
 Center     Atomic      Atomic             Coordinates (Angstroms)
 Number     Number       Type             X           Y           Z
 ---------------------------------------------------------------------
      1         17           0       -1.535778   -0.089992    0.018992
      2          6           0        0.375710    0.126097    0.108794
      3          1           0        0.669985   -0.374143    1.031616
      4          1           0        0.876072   -0.295128   -0.765867
      5          1           0        0.531942    1.204742    0.167654
      6          8           0        2.767329    0.118438   -0.161497
      7          1           0        2.816381   -0.794103    0.175295
 ---------------------------------------------------------------------
                    Distance matrix (angstroms):
                    1          2          3          4          5
     1  Cl   0.000000
     2  C    1.925758   0.000000
     3  H    2.443673   1.090154   0.000000
     4  H    2.544623   1.092165   1.810983   0.000000
     5  H    2.444156   1.091488   1.805094   1.799860   0.000000
     6  O    4.311931   2.406857   2.462723   2.028091   2.507061
     7  H    4.411518   2.609227   2.348759   2.213495   3.035474
                    6          7
     6  O    0.000000
     7  H    0.973943   0.000000
 Symmetry turned off by external request.
 Stoichiometry    CH4ClO(1-)
 Framework group  C1[X(CH4ClO)]
 Deg. of freedom    15
 Full point group                 C1      NOp   1
 Rotational constants (GHZ):    106.4718272      2.3097498      2.3031721
 Standard basis: CC-pVDZ (5D, 7F)
    66 basis functions,   165 primitive gaussians,    69 cartesian basis functions
    18 alpha electrons       18 beta electrons
       nuclear repulsion energy        89.5139564915 Hartrees.
 NAtoms=    7 NActive=    7 NUniq=    7 SFac= 1.00D+00 NAtFMM=   60 NAOKFM=F Big=F
 Integral buffers will be    131072 words long.
 Raffenetti 1 integral format.
 Two-electron integral symmetry is turned off.
 One-electron integrals computed using PRISM.
 NBasis=    66 RedAO= T EigKep=  1.91D-02  NBF=    66
 NBsUse=    66 1.00D-06 EigRej= -1.00D+00 NBFU=    66
 Initial guess from the checkpoint file:  "/localscratch/rjackson.18103347.0/Gau-37260.chk"
 B after Tr=     0.107037    0.158398    0.140637
         Rot=    1.000000   -0.000069    0.000171   -0.000087 Ang=  -0.02 deg.
 ExpMin= 1.22D-01 ExpMax= 1.28D+05 ExpMxC= 1.24D+03 IAcc=3 IRadAn=         5 AccDes= 0.00D+00
 Harris functional with IExCor=  205 and IRadAn=       5 diagonalized for initial guess.
 HarFok:  IExCor=  205 AccDes= 0.00D+00 IRadAn=         5 IDoV= 1 UseB2=F ITyADJ=14
 ICtDFT=  3500011 ScaDFX=  1.000000  1.000000  1.000000  1.000000
 FoFCou: FMM=F IPFlag=           0 FMFlag=      100000 FMFlg1=           0
         NFxFlg=           0 DoJE=T BraDBF=F KetDBF=T FulRan=T
         wScrn=  0.000000 ICntrl=     500 IOpCl=  0 I1Cent=   200000004 NGrid=           0
         NMat0=    1 NMatS0=      1 NMatT0=    0 NMatD0=    1 NMtDS0=    0 NMtDT0=    0
 Symmetry not used in FoFCou.
 Keep R1 ints in memory in canonical form, NReq=3411539.
 Requested convergence on RMS density matrix=1.00D-08 within 256 cycles.
 Requested convergence on MAX density matrix=1.00D-06.
 Requested convergence on             energy=1.00D-06.
 No special actions if energy rises.
 SCF Done:  E(RHF) =  -574.486970661     A.U. after   12 cycles
            NFock= 12  Conv=0.34D-08     -V/T= 1.9999
 ExpMin= 1.22D-01 ExpMax= 1.28D+05 ExpMxC= 1.24D+03 IAcc=3 IRadAn=         7 AccDes= 0.00D+00
 HarFok:  IExCor=  205 AccDes= 0.00D+00 IRadAn=         7 IDoV=-2 UseB2=F ITyADJ=14
 ICtDFT= 12500011 ScaDFX=  1.000000  1.000000  1.000000  1.000000
 Range of M.O.s used for correlation:     8    66
 NBasis=    66 NAE=    18 NBE=    18 NFC=     7 NFV=     0
 NROrb=     59 NOA=    11 NOB=    11 NVA=    48 NVB=    48
 Fully direct method using O(ONN) memory.
 JobTyp=1 Pass  1:  I=   8 to  18 NPSUse=  1 ParTrn=F ParDer=F DoDerP=T.
 Spin components of T(2) and E(2):
     alpha-alpha T2 =       0.2039457388D-01 E2=     -0.6150983293D-01
     alpha-beta  T2 =       0.1196647601D+00 E2=     -0.3690446592D+00
     beta-beta   T2 =       0.2039457388D-01 E2=     -0.6150983293D-01
 ANorm=    0.1077243662D+01
 E2 =    -0.4920643251D+00 EUMP2 =    -0.57497903498579D+03
          IDoAtm=1111111
          Differentiating once with respect to electric field.
                with respect to dipole field.
          Differentiating once with respect to nuclear coordinates.
 Keep R1 ints in memory in canonical form, NReq=3353837.
          There are     1 degrees of freedom in the 1st order CPHF.  IDoFFX=0 NUNeed=     1.
 LinEq1:  Iter=  0 NonCon=     1 RMS=7.93D-03 Max=1.14D-01 NDo=     1
 AX will form     1 AO Fock derivatives at one time.
 LinEq1:  Iter=  1 NonCon=     1 RMS=1.78D-03 Max=1.77D-02 NDo=     1
 LinEq1:  Iter=  2 NonCon=     1 RMS=5.79D-04 Max=6.57D-03 NDo=     1
 LinEq1:  Iter=  3 NonCon=     1 RMS=1.94D-04 Max=2.26D-03 NDo=     1
 LinEq1:  Iter=  4 NonCon=     1 RMS=6.56D-05 Max=6.48D-04 NDo=     1
 LinEq1:  Iter=  5 NonCon=     1 RMS=1.67D-05 Max=1.58D-04 NDo=     1
 LinEq1:  Iter=  6 NonCon=     1 RMS=4.17D-06 Max=3.56D-05 NDo=     1
 LinEq1:  Iter=  7 NonCon=     1 RMS=9.51D-07 Max=8.30D-06 NDo=     1
 LinEq1:  Iter=  8 NonCon=     1 RMS=2.30D-07 Max=1.47D-06 NDo=     1
 LinEq1:  Iter=  9 NonCon=     1 RMS=4.85D-08 Max=4.77D-07 NDo=     1
 LinEq1:  Iter= 10 NonCon=     1 RMS=1.07D-08 Max=1.21D-07 NDo=     1
 LinEq1:  Iter= 11 NonCon=     1 RMS=1.75D-09 Max=1.26D-08 NDo=     1
 LinEq1:  Iter= 12 NonCon=     1 RMS=3.30D-10 Max=2.66D-09 NDo=     1
 LinEq1:  Iter= 13 NonCon=     0 RMS=7.80D-11 Max=5.08D-10 NDo=     1
 Linear equations converged to 1.000D-10 1.000D-09 after    13 iterations.
 End of Minotr F.D. properties file   721 does not exist.
 End of Minotr F.D. properties file   722 does not exist.
 End of Minotr F.D. properties file   788 does not exist.
 Symmetrizing basis deriv contribution to polar:
 IMax=3 JMax=2 DiffMx= 0.00D+00
 Calling FoFJK, ICntrl=  10002127 FMM=F ISym2X=0 I1Cent= 0 IOpClX= 0 NMat=1 NMatS=1 NMatT=0.
 -------------------------------------------------------------------
 Center     Atomic                   Forces (Hartrees/Bohr)
 Number     Number              X              Y              Z
 -------------------------------------------------------------------
      1       17           0.000194634   -0.000212218   -0.000379868
      2        6          -0.000357732    0.000155909    0.000232889
      3        1          -0.000123382    0.000036601    0.000073644
      4        1          -0.000086124    0.000255631    0.000494012
      5        1          -0.000119422    0.000029553    0.000081812
      6        8           0.000488382   -0.000387836   -0.000486381
      7        1           0.000003644    0.000122360   -0.000016108
 -------------------------------------------------------------------
 Cartesian Forces:  Max     0.000494012 RMS     0.000261416
 IRC-IRC-IRC-IRC-IRC-IRC-IRC-IRC-IRC-IRC-IRC-IRC-IRC-IRC-IRC-IRC-IRC-IRC
 Pt  1 Step number   1 out of a maximum of  20
 Modified Bulirsch-Stoer Extrapolation Cycles:
    EPS =    0.000000333333333
 Maximum DWI energy   std dev =  0.000000552 at pt     2
 Maximum DWI gradient std dev =  0.551868188 at pt     5
 CORRECTOR INTEGRATION CONVERGENCE:
   Recorrection delta-x convergence threshold:    0.001826
   Delta-x Convergence NOT Met
 IRC-IRC-IRC-IRC-IRC-IRC-IRC-IRC-IRC-IRC-IRC-IRC-IRC-IRC-IRC-IRC-IRC-IRC
                          Input orientation:                          
 ---------------------------------------------------------------------
 Center     Atomic      Atomic             Coordinates (Angstroms)
 Number     Number       Type             X           Y           Z
 ---------------------------------------------------------------------
      1         17           0       -1.536118   -0.090140    0.018754
      2          6           0        0.377573    0.126755    0.109865
      3          1           0        0.668780   -0.373703    1.033470
      4          1           0        0.877240   -0.294455   -0.764237
      5          1           0        0.531227    1.205693    0.169020
      6          8           0        2.766729    0.118221   -0.161925
      7          1           0        2.815949   -0.793836    0.175743
 ---------------------------------------------------------------------
                    Distance matrix (angstroms):
                    1          2          3          4          5
     1  Cl   0.000000
     2  C    1.928097   0.000000
     3  H    2.443692   1.090095   0.000000
     4  H    2.545410   1.091394   1.811487   0.000000
     5  H    2.444520   1.091428   1.805737   1.800316   0.000000
     6  O    4.311676   2.404581   2.464214   2.025648   2.507905
     7  H    4.411386   2.607203   2.350010   2.211682   3.036135
                    6          7
     6  O    0.000000
     7  H    0.973802   0.000000
 Symmetry turned off by external request.
 Stoichiometry    CH4ClO(1-)
 Framework group  C1[X(CH4ClO)]
 Deg. of freedom    15
 Full point group                 C1      NOp   1
 Rotational constants (GHZ):    106.2529056      2.3096996      2.3031696
 Standard basis: CC-pVDZ (5D, 7F)
    66 basis functions,   165 primitive gaussians,    69 cartesian basis functions
    18 alpha electrons       18 beta electrons
       nuclear repulsion energy        89.4939675093 Hartrees.
 NAtoms=    7 NActive=    7 NUniq=    7 SFac= 1.00D+00 NAtFMM=   60 NAOKFM=F Big=F
 Integral buffers will be    131072 words long.
 Raffenetti 1 integral format.
 Two-electron integral symmetry is turned off.
 One-electron integrals computed using PRISM.
 NBasis=    66 RedAO= T EigKep=  1.91D-02  NBF=    66
 NBsUse=    66 1.00D-06 EigRej= -1.00D+00 NBFU=    66
 Initial guess from the checkpoint file:  "/localscratch/rjackson.18103347.0/Gau-37260.chk"
 B after Tr=    -0.000031    0.000107    0.000223
         Rot=    1.000000    0.000005    0.000017   -0.000007 Ang=   0.00 deg.
 ExpMin= 1.22D-01 ExpMax= 1.28D+05 ExpMxC= 1.24D+03 IAcc=3 IRadAn=         5 AccDes= 0.00D+00
 Harris functional with IExCor=  205 and IRadAn=       5 diagonalized for initial guess.
 HarFok:  IExCor=  205 AccDes= 0.00D+00 IRadAn=         5 IDoV= 1 UseB2=F ITyADJ=14
 ICtDFT=  3500011 ScaDFX=  1.000000  1.000000  1.000000  1.000000
 FoFCou: FMM=F IPFlag=           0 FMFlag=      100000 FMFlg1=           0
         NFxFlg=           0 DoJE=T BraDBF=F KetDBF=T FulRan=T
         wScrn=  0.000000 ICntrl=     500 IOpCl=  0 I1Cent=   200000004 NGrid=           0
         NMat0=    1 NMatS0=      1 NMatT0=    0 NMatD0=    1 NMtDS0=    0 NMtDT0=    0
 Symmetry not used in FoFCou.
 Keep R1 ints in memory in canonical form, NReq=3411525.
 Requested convergence on RMS density matrix=1.00D-08 within 256 cycles.
 Requested convergence on MAX density matrix=1.00D-06.
 Requested convergence on             energy=1.00D-06.
 No special actions if energy rises.
 SCF Done:  E(RHF) =  -574.486989915     A.U. after   10 cycles
            NFock= 10  Conv=0.41D-08     -V/T= 1.9999
 ExpMin= 1.22D-01 ExpMax= 1.28D+05 ExpMxC= 1.24D+03 IAcc=3 IRadAn=         7 AccDes= 0.00D+00
 HarFok:  IExCor=  205 AccDes= 0.00D+00 IRadAn=         7 IDoV=-2 UseB2=F ITyADJ=14
 ICtDFT= 12500011 ScaDFX=  1.000000  1.000000  1.000000  1.000000
 Range of M.O.s used for correlation:     8    66
 NBasis=    66 NAE=    18 NBE=    18 NFC=     7 NFV=     0
 NROrb=     59 NOA=    11 NOB=    11 NVA=    48 NVB=    48
 Fully direct method using O(ONN) memory.
 JobTyp=1 Pass  1:  I=   8 to  18 NPSUse=  1 ParTrn=F ParDer=F DoDerP=T.
 Spin components of T(2) and E(2):
     alpha-alpha T2 =       0.2039597833D-01 E2=     -0.6150697366D-01
     alpha-beta  T2 =       0.1196783235D+00 E2=     -0.3690322435D+00
     beta-beta   T2 =       0.2039597833D-01 E2=     -0.6150697366D-01
 ANorm=    0.1077251261D+01
 E2 =    -0.4920461909D+00 EUMP2 =    -0.57497903610619D+03
          IDoAtm=1111111
          Differentiating once with respect to electric field.
                with respect to dipole field.
          Differentiating once with respect to nuclear coordinates.
 Keep R1 ints in memory in canonical form, NReq=3353856.
          There are     1 degrees of freedom in the 1st order CPHF.  IDoFFX=0 NUNeed=     1.
 LinEq1:  Iter=  0 NonCon=     1 RMS=7.95D-03 Max=1.14D-01 NDo=     1
 AX will form     1 AO Fock derivatives at one time.
 LinEq1:  Iter=  1 NonCon=     1 RMS=1.79D-03 Max=1.78D-02 NDo=     1
 LinEq1:  Iter=  2 NonCon=     1 RMS=5.82D-04 Max=6.61D-03 NDo=     1
 LinEq1:  Iter=  3 NonCon=     1 RMS=1.95D-04 Max=2.26D-03 NDo=     1
 LinEq1:  Iter=  4 NonCon=     1 RMS=6.60D-05 Max=6.53D-04 NDo=     1
 LinEq1:  Iter=  5 NonCon=     1 RMS=1.68D-05 Max=1.59D-04 NDo=     1
 LinEq1:  Iter=  6 NonCon=     1 RMS=4.21D-06 Max=3.57D-05 NDo=     1
 LinEq1:  Iter=  7 NonCon=     1 RMS=9.58D-07 Max=8.38D-06 NDo=     1
 LinEq1:  Iter=  8 NonCon=     1 RMS=2.32D-07 Max=1.49D-06 NDo=     1
 LinEq1:  Iter=  9 NonCon=     1 RMS=4.93D-08 Max=4.81D-07 NDo=     1
 LinEq1:  Iter= 10 NonCon=     1 RMS=1.09D-08 Max=1.22D-07 NDo=     1
 LinEq1:  Iter= 11 NonCon=     1 RMS=1.77D-09 Max=1.25D-08 NDo=     1
 LinEq1:  Iter= 12 NonCon=     1 RMS=3.32D-10 Max=2.71D-09 NDo=     1
 LinEq1:  Iter= 13 NonCon=     0 RMS=7.84D-11 Max=5.13D-10 NDo=     1
 Linear equations converged to 1.000D-10 1.000D-09 after    13 iterations.
 End of Minotr F.D. properties file   721 does not exist.
 End of Minotr F.D. properties file   722 does not exist.
 End of Minotr F.D. properties file   788 does not exist.
 Symmetrizing basis deriv contribution to polar:
 IMax=3 JMax=2 DiffMx= 0.00D+00
 Calling FoFJK, ICntrl=  10002127 FMM=F ISym2X=0 I1Cent= 0 IOpClX= 0 NMat=1 NMatS=1 NMatT=0.
 -------------------------------------------------------------------
 Center     Atomic                   Forces (Hartrees/Bohr)
 Number     Number              X              Y              Z
 -------------------------------------------------------------------
      1       17           0.000316424   -0.000192860   -0.000383571
      2        6          -0.000820291    0.000309904    0.000632114
      3        1          -0.000033921    0.000033060    0.000061003
      4        1           0.000127088    0.000059684    0.000083992
      5        1          -0.000039084    0.000028553    0.000066672
      6        8           0.000444758   -0.000253368   -0.000488352
      7        1           0.000005026    0.000015028    0.000028143
 -------------------------------------------------------------------
 Cartesian Forces:  Max     0.000820291 RMS     0.000308142
 IRC-IRC-IRC-IRC-IRC-IRC-IRC-IRC-IRC-IRC-IRC-IRC-IRC-IRC-IRC-IRC-IRC-IRC
 Error in corrector energy =          -0.0000003785
 Magnitude of corrector gradient =     0.0013330637
 Magnitude of analytic gradient =      0.0014120862
 Magnitude of difference =             0.0001561630
 Angle between gradients (degrees)=    5.6271
 Pt  1 Step number   2 out of a maximum of  20
 Modified Bulirsch-Stoer Extrapolation Cycles:
    EPS =    0.000000333333333
 Maximum DWI energy   std dev =  0.000000482 at pt    47
 Maximum DWI gradient std dev =  0.504312045 at pt    14
 CORRECTOR INTEGRATION CONVERGENCE:
   Recorrection delta-x convergence threshold:    0.001826
   Delta-x Convergence NOT Met
 IRC-IRC-IRC-IRC-IRC-IRC-IRC-IRC-IRC-IRC-IRC-IRC-IRC-IRC-IRC-IRC-IRC-IRC
                          Input orientation:                          
 ---------------------------------------------------------------------
 Center     Atomic      Atomic             Coordinates (Angstroms)
 Number     Number       Type             X           Y           Z
 ---------------------------------------------------------------------
      1         17           0       -1.535992   -0.090112    0.018791
      2          6           0        0.376998    0.126523    0.109488
      3          1           0        0.669065   -0.373805    1.032925
      4          1           0        0.877059   -0.294642   -0.764548
      5          1           0        0.531379    1.205387    0.168473
      6          8           0        2.766897    0.118224   -0.161904
      7          1           0        2.816014   -0.794005    0.175281
 ---------------------------------------------------------------------
                    Distance matrix (angstroms):
                    1          2          3          4          5
     1  Cl   0.000000
     2  C    1.927353   0.000000
     3  H    2.443609   1.090122   0.000000
     4  H    2.545244   1.091504   1.811197   0.000000
     5  H    2.444330   1.091449   1.805570   1.800031   0.000000
     6  O    4.311718   2.405273   2.463860   2.026111   2.507711
     7  H    4.411339   2.607777   2.349790   2.211829   3.035980
                    6          7
     6  O    0.000000
     7  H    0.973791   0.000000
 Symmetry turned off by external request.
 Stoichiometry    CH4ClO(1-)
 Framework group  C1[X(CH4ClO)]
 Deg. of freedom    15
 Full point group                 C1      NOp   1
 Rotational constants (GHZ):    106.3257372      2.3097595      2.3032114
 Standard basis: CC-pVDZ (5D, 7F)
    66 basis functions,   165 primitive gaussians,    69 cartesian basis functions
    18 alpha electrons       18 beta electrons
       nuclear repulsion energy        89.5016294750 Hartrees.
 NAtoms=    7 NActive=    7 NUniq=    7 SFac= 1.00D+00 NAtFMM=   60 NAOKFM=F Big=F
 Integral buffers will be    131072 words long.
 Raffenetti 1 integral format.
 Two-electron integral symmetry is turned off.
 One-electron integrals computed using PRISM.
 NBasis=    66 RedAO= T EigKep=  1.91D-02  NBF=    66
 NBsUse=    66 1.00D-06 EigRej= -1.00D+00 NBFU=    66
 Initial guess from the checkpoint file:  "/localscratch/rjackson.18103347.0/Gau-37260.chk"
 B after Tr=     0.000019   -0.000088   -0.000175
         Rot=    1.000000    0.000002   -0.000014    0.000007 Ang=   0.00 deg.
 ExpMin= 1.22D-01 ExpMax= 1.28D+05 ExpMxC= 1.24D+03 IAcc=3 IRadAn=         5 AccDes= 0.00D+00
 Harris functional with IExCor=  205 and IRadAn=       5 diagonalized for initial guess.
 HarFok:  IExCor=  205 AccDes= 0.00D+00 IRadAn=         5 IDoV= 1 UseB2=F ITyADJ=14
 ICtDFT=  3500011 ScaDFX=  1.000000  1.000000  1.000000  1.000000
 FoFCou: FMM=F IPFlag=           0 FMFlag=      100000 FMFlg1=           0
         NFxFlg=           0 DoJE=T BraDBF=F KetDBF=T FulRan=T
         wScrn=  0.000000 ICntrl=     500 IOpCl=  0 I1Cent=   200000004 NGrid=           0
         NMat0=    1 NMatS0=      1 NMatT0=    0 NMatD0=    1 NMtDS0=    0 NMtDT0=    0
 Symmetry not used in FoFCou.
 Keep R1 ints in memory in canonical form, NReq=3411525.
 Requested convergence on RMS density matrix=1.00D-08 within 256 cycles.
 Requested convergence on MAX density matrix=1.00D-06.
 Requested convergence on             energy=1.00D-06.
 No special actions if energy rises.
 SCF Done:  E(RHF) =  -574.486985839     A.U. after    9 cycles
            NFock=  9  Conv=0.46D-08     -V/T= 1.9999
 ExpMin= 1.22D-01 ExpMax= 1.28D+05 ExpMxC= 1.24D+03 IAcc=3 IRadAn=         7 AccDes= 0.00D+00
 HarFok:  IExCor=  205 AccDes= 0.00D+00 IRadAn=         7 IDoV=-2 UseB2=F ITyADJ=14
 ICtDFT= 12500011 ScaDFX=  1.000000  1.000000  1.000000  1.000000
 Range of M.O.s used for correlation:     8    66
 NBasis=    66 NAE=    18 NBE=    18 NFC=     7 NFV=     0
 NROrb=     59 NOA=    11 NOB=    11 NVA=    48 NVB=    48
 Fully direct method using O(ONN) memory.
 JobTyp=1 Pass  1:  I=   8 to  18 NPSUse=  1 ParTrn=F ParDer=F DoDerP=T.
 Spin components of T(2) and E(2):
     alpha-alpha T2 =       0.2039540271D-01 E2=     -0.6150817564D-01
     alpha-beta  T2 =       0.1196713495D+00 E2=     -0.3690339789D+00
     beta-beta   T2 =       0.2039540271D-01 E2=     -0.6150817564D-01
 ANorm=    0.1077247490D+01
 E2 =    -0.4920503302D+00 EUMP2 =    -0.57497903616953D+03
          IDoAtm=1111111
          Differentiating once with respect to electric field.
                with respect to dipole field.
          Differentiating once with respect to nuclear coordinates.
 Keep R1 ints in memory in canonical form, NReq=3353856.
          There are     1 degrees of freedom in the 1st order CPHF.  IDoFFX=0 NUNeed=     1.
 LinEq1:  Iter=  0 NonCon=     1 RMS=7.95D-03 Max=1.14D-01 NDo=     1
 AX will form     1 AO Fock derivatives at one time.
 LinEq1:  Iter=  1 NonCon=     1 RMS=1.79D-03 Max=1.77D-02 NDo=     1
 LinEq1:  Iter=  2 NonCon=     1 RMS=5.81D-04 Max=6.59D-03 NDo=     1
 LinEq1:  Iter=  3 NonCon=     1 RMS=1.95D-04 Max=2.26D-03 NDo=     1
 LinEq1:  Iter=  4 NonCon=     1 RMS=6.59D-05 Max=6.51D-04 NDo=     1
 LinEq1:  Iter=  5 NonCon=     1 RMS=1.68D-05 Max=1.58D-04 NDo=     1
 LinEq1:  Iter=  6 NonCon=     1 RMS=4.20D-06 Max=3.56D-05 NDo=     1
 LinEq1:  Iter=  7 NonCon=     1 RMS=9.56D-07 Max=8.36D-06 NDo=     1
 LinEq1:  Iter=  8 NonCon=     1 RMS=2.31D-07 Max=1.48D-06 NDo=     1
 LinEq1:  Iter=  9 NonCon=     1 RMS=4.91D-08 Max=4.80D-07 NDo=     1
 LinEq1:  Iter= 10 NonCon=     1 RMS=1.08D-08 Max=1.22D-07 NDo=     1
 LinEq1:  Iter= 11 NonCon=     1 RMS=1.76D-09 Max=1.25D-08 NDo=     1
 LinEq1:  Iter= 12 NonCon=     1 RMS=3.31D-10 Max=2.70D-09 NDo=     1
 LinEq1:  Iter= 13 NonCon=     0 RMS=7.83D-11 Max=5.12D-10 NDo=     1
 Linear equations converged to 1.000D-10 1.000D-09 after    13 iterations.
 End of Minotr F.D. properties file   721 does not exist.
 End of Minotr F.D. properties file   722 does not exist.
 End of Minotr F.D. properties file   788 does not exist.
 Symmetrizing basis deriv contribution to polar:
 IMax=3 JMax=2 DiffMx= 0.00D+00
 Calling FoFJK, ICntrl=  10002127 FMM=F ISym2X=0 I1Cent= 0 IOpClX= 0 NMat=1 NMatS=1 NMatT=0.
 -------------------------------------------------------------------
 Center     Atomic                   Forces (Hartrees/Bohr)
 Number     Number              X              Y              Z
 -------------------------------------------------------------------
      1       17           0.000280232   -0.000203831   -0.000391562
      2        6          -0.000723118    0.000303449    0.000604988
      3        1          -0.000059113    0.000042701    0.000062406
      4        1           0.000096247    0.000078500    0.000121101
      5        1          -0.000060533    0.000027536    0.000077224
      6        8           0.000458869   -0.000249007   -0.000508469
      7        1           0.000007415    0.000000652    0.000034313
 -------------------------------------------------------------------
 Cartesian Forces:  Max     0.000723118 RMS     0.000295717
 IRC-IRC-IRC-IRC-IRC-IRC-IRC-IRC-IRC-IRC-IRC-IRC-IRC-IRC-IRC-IRC-IRC-IRC
 Error in corrector energy =          -0.0000000363
 Magnitude of corrector gradient =     0.0013856391
 Magnitude of analytic gradient =      0.0013551448
 Magnitude of difference =             0.0000526609
 Angle between gradients (degrees)=    1.7952
 Pt  1 Step number   3 out of a maximum of  20
 Modified Bulirsch-Stoer Extrapolation Cycles:
    EPS =    0.000000333333333
 Maximum DWI energy   std dev =  0.000000427 at pt    47
 Maximum DWI gradient std dev =  0.521853381 at pt    16
 CORRECTOR INTEGRATION CONVERGENCE:
   Recorrection delta-x convergence threshold:    0.001826
   Delta-x Convergence Met
 Point Number:   1          Path Number:   1
   CHANGE IN THE REACTION COORDINATE =    0.19066
   NET REACTION COORDINATE UP TO THIS POINT =    0.19066
  # OF POINTS ALONG THE PATH =   1
  # OF STEPS =   3

 Calculating another point on the path.
 IRC-IRC-IRC-IRC-IRC-IRC-IRC-IRC-IRC-IRC-IRC-IRC-IRC-IRC-IRC-IRC-IRC-IRC
                          Input orientation:                          
 ---------------------------------------------------------------------
 Center     Atomic      Atomic             Coordinates (Angstroms)
 Number     Number       Type             X           Y           Z
 ---------------------------------------------------------------------
      1         17           0       -1.533986   -0.091516    0.016050
      2          6           0        0.362069    0.132821    0.122151
      3          1           0        0.655925   -0.363932    1.048026
      4          1           0        0.902153   -0.277367   -0.738490
      5          1           0        0.517753    1.212008    0.186974
      6          8           0        2.773695    0.114402   -0.169591
      7          1           0        2.817752   -0.792485    0.183654
 ---------------------------------------------------------------------
                    Distance matrix (angstroms):
                    1          2          3          4          5
     1  Cl   0.000000
     2  C    1.912226   0.000000
     3  H    2.436164   1.091036   0.000000
     4  H    2.557077   1.095741   1.805482   0.000000
     5  H    2.436805   1.092284   1.801135   1.795128   0.000000
     6  O    4.316593   2.429278   2.489246   1.994943   2.534000
     7  H    4.411017   2.624948   2.367339   2.187514   3.050901
                    6          7
     6  O    0.000000
     7  H    0.974252   0.000000
 Symmetry turned off by external request.
 Stoichiometry    CH4ClO(1-)
 Framework group  C1[X(CH4ClO)]
 Deg. of freedom    15
 Full point group                 C1      NOp   1
 Rotational constants (GHZ):    104.5175907      2.3061204      2.3000883
 Standard basis: CC-pVDZ (5D, 7F)
    66 basis functions,   165 primitive gaussians,    69 cartesian basis functions
    18 alpha electrons       18 beta electrons
       nuclear repulsion energy        89.5806301167 Hartrees.
 NAtoms=    7 NActive=    7 NUniq=    7 SFac= 1.00D+00 NAtFMM=   60 NAOKFM=F Big=F
 Integral buffers will be    131072 words long.
 Raffenetti 1 integral format.
 Two-electron integral symmetry is turned off.
 One-electron integrals computed using PRISM.
 NBasis=    66 RedAO= T EigKep=  1.88D-02  NBF=    66
 NBsUse=    66 1.00D-06 EigRej= -1.00D+00 NBFU=    66
 Initial guess from the checkpoint file:  "/localscratch/rjackson.18103347.0/Gau-37260.chk"
 B after Tr=    -0.000049    0.000973    0.001870
         Rot=    1.000000   -0.000021    0.000202   -0.000098 Ang=  -0.03 deg.
 ExpMin= 1.22D-01 ExpMax= 1.28D+05 ExpMxC= 1.24D+03 IAcc=3 IRadAn=         5 AccDes= 0.00D+00
 Harris functional with IExCor=  205 and IRadAn=       5 diagonalized for initial guess.
 HarFok:  IExCor=  205 AccDes= 0.00D+00 IRadAn=         5 IDoV= 1 UseB2=F ITyADJ=14
 ICtDFT=  3500011 ScaDFX=  1.000000  1.000000  1.000000  1.000000
 FoFCou: FMM=F IPFlag=           0 FMFlag=      100000 FMFlg1=           0
         NFxFlg=           0 DoJE=T BraDBF=F KetDBF=T FulRan=T
         wScrn=  0.000000 ICntrl=     500 IOpCl=  0 I1Cent=   200000004 NGrid=           0
         NMat0=    1 NMatS0=      1 NMatT0=    0 NMatD0=    1 NMtDS0=    0 NMtDT0=    0
 Symmetry not used in FoFCou.
 Keep R1 ints in memory in canonical form, NReq=3411567.
 Requested convergence on RMS density matrix=1.00D-08 within 256 cycles.
 Requested convergence on MAX density matrix=1.00D-06.
 Requested convergence on             energy=1.00D-06.
 No special actions if energy rises.
 SCF Done:  E(RHF) =  -574.486697458     A.U. after   12 cycles
            NFock= 12  Conv=0.33D-08     -V/T= 1.9999
 ExpMin= 1.22D-01 ExpMax= 1.28D+05 ExpMxC= 1.24D+03 IAcc=3 IRadAn=         7 AccDes= 0.00D+00
 HarFok:  IExCor=  205 AccDes= 0.00D+00 IRadAn=         7 IDoV=-2 UseB2=F ITyADJ=14
 ICtDFT= 12500011 ScaDFX=  1.000000  1.000000  1.000000  1.000000
 Range of M.O.s used for correlation:     8    66
 NBasis=    66 NAE=    18 NBE=    18 NFC=     7 NFV=     0
 NROrb=     59 NOA=    11 NOB=    11 NVA=    48 NVB=    48
 Fully direct method using O(ONN) memory.
 JobTyp=1 Pass  1:  I=   8 to  18 NPSUse=  1 ParTrn=F ParDer=F DoDerP=T.
 Spin components of T(2) and E(2):
     alpha-alpha T2 =       0.2041721937D-01 E2=     -0.6159115331D-01
     alpha-beta  T2 =       0.1196835775D+00 E2=     -0.3692676047D+00
     beta-beta   T2 =       0.2041721937D-01 E2=     -0.6159115331D-01
 ANorm=    0.1077273418D+01
 E2 =    -0.4924499113D+00 EUMP2 =    -0.57497914736944D+03
          IDoAtm=1111111
          Differentiating once with respect to electric field.
                with respect to dipole field.
          Differentiating once with respect to nuclear coordinates.
 Keep R1 ints in memory in canonical form, NReq=3353799.
          There are     1 degrees of freedom in the 1st order CPHF.  IDoFFX=0 NUNeed=     1.
 LinEq1:  Iter=  0 NonCon=     1 RMS=7.80D-03 Max=1.09D-01 NDo=     1
 AX will form     1 AO Fock derivatives at one time.
 LinEq1:  Iter=  1 NonCon=     1 RMS=1.74D-03 Max=1.74D-02 NDo=     1
 LinEq1:  Iter=  2 NonCon=     1 RMS=5.63D-04 Max=6.29D-03 NDo=     1
 LinEq1:  Iter=  3 NonCon=     1 RMS=1.88D-04 Max=2.23D-03 NDo=     1
 LinEq1:  Iter=  4 NonCon=     1 RMS=6.37D-05 Max=6.20D-04 NDo=     1
 LinEq1:  Iter=  5 NonCon=     1 RMS=1.63D-05 Max=1.52D-04 NDo=     1
 LinEq1:  Iter=  6 NonCon=     1 RMS=4.05D-06 Max=3.47D-05 NDo=     1
 LinEq1:  Iter=  7 NonCon=     1 RMS=9.23D-07 Max=8.06D-06 NDo=     1
 LinEq1:  Iter=  8 NonCon=     1 RMS=2.22D-07 Max=1.53D-06 NDo=     1
 LinEq1:  Iter=  9 NonCon=     1 RMS=4.45D-08 Max=5.17D-07 NDo=     1
 LinEq1:  Iter= 10 NonCon=     1 RMS=9.93D-09 Max=1.04D-07 NDo=     1
 LinEq1:  Iter= 11 NonCon=     1 RMS=1.71D-09 Max=1.31D-08 NDo=     1
 LinEq1:  Iter= 12 NonCon=     1 RMS=3.36D-10 Max=2.63D-09 NDo=     1
 LinEq1:  Iter= 13 NonCon=     0 RMS=7.97D-11 Max=5.33D-10 NDo=     1
 Linear equations converged to 1.000D-10 1.000D-09 after    13 iterations.
 End of Minotr F.D. properties file   721 does not exist.
 End of Minotr F.D. properties file   722 does not exist.
 End of Minotr F.D. properties file   788 does not exist.
 Symmetrizing basis deriv contribution to polar:
 IMax=3 JMax=2 DiffMx= 0.00D+00
 Calling FoFJK, ICntrl=  10002127 FMM=F ISym2X=0 I1Cent= 0 IOpClX= 0 NMat=1 NMatS=1 NMatT=0.
 -------------------------------------------------------------------
 Center     Atomic                   Forces (Hartrees/Bohr)
 Number     Number              X              Y              Z
 -------------------------------------------------------------------
      1       17           0.000351585   -0.000406129   -0.000760479
      2        6          -0.000554028    0.000343167    0.000543165
      3        1          -0.000184855    0.000047759    0.000159358
      4        1          -0.000114690    0.000443648    0.000871401
      5        1          -0.000185805    0.000068863    0.000140913
      6        8           0.000689722   -0.000803227   -0.000888805
      7        1          -0.000001928    0.000305918   -0.000065552
 -------------------------------------------------------------------
 Cartesian Forces:  Max     0.000888805 RMS     0.000472363
 IRC-IRC-IRC-IRC-IRC-IRC-IRC-IRC-IRC-IRC-IRC-IRC-IRC-IRC-IRC-IRC-IRC-IRC
 Pt  2 Step number   1 out of a maximum of  20
 Modified Bulirsch-Stoer Extrapolation Cycles:
    EPS =    0.000000333333333
 Maximum DWI energy   std dev =  0.000000524 at pt    21
 Maximum DWI gradient std dev =  0.389471895 at pt   143
 CORRECTOR INTEGRATION CONVERGENCE:
   Recorrection delta-x convergence threshold:    0.001826
   Delta-x Convergence NOT Met
 IRC-IRC-IRC-IRC-IRC-IRC-IRC-IRC-IRC-IRC-IRC-IRC-IRC-IRC-IRC-IRC-IRC-IRC
                          Input orientation:                          
 ---------------------------------------------------------------------
 Center     Atomic      Atomic             Coordinates (Angstroms)
 Number     Number       Type             X           Y           Z
 ---------------------------------------------------------------------
      1         17           0       -1.534273   -0.091603    0.015923
      2          6           0        0.363851    0.133302    0.122878
      3          1           0        0.654536   -0.363551    1.049668
      4          1           0        0.903164   -0.276734   -0.736700
      5          1           0        0.516751    1.212818    0.187939
      6          8           0        2.773055    0.114292   -0.169750
      7          1           0        2.817481   -0.792259    0.183276
 ---------------------------------------------------------------------
                    Distance matrix (angstroms):
                    1          2          3          4          5
     1  Cl   0.000000
     2  C    1.914392   0.000000
     3  H    2.435871   1.091008   0.000000
     4  H    2.557697   1.094469   1.805675   0.000000
     5  H    2.436760   1.092230   1.801805   1.795282   0.000000
     6  O    4.316241   2.426985   2.490669   1.992693   2.534879
     7  H    4.410974   2.623092   2.369126   2.185574   3.051839
                    6          7
     6  O    0.000000
     7  H    0.973877   0.000000
 Symmetry turned off by external request.
 Stoichiometry    CH4ClO(1-)
 Framework group  C1[X(CH4ClO)]
 Deg. of freedom    15
 Full point group                 C1      NOp   1
 Rotational constants (GHZ):    104.3762583      2.3062140      2.3001991
 Standard basis: CC-pVDZ (5D, 7F)
    66 basis functions,   165 primitive gaussians,    69 cartesian basis functions
    18 alpha electrons       18 beta electrons
       nuclear repulsion energy        89.5663993839 Hartrees.
 NAtoms=    7 NActive=    7 NUniq=    7 SFac= 1.00D+00 NAtFMM=   60 NAOKFM=F Big=F
 Integral buffers will be    131072 words long.
 Raffenetti 1 integral format.
 Two-electron integral symmetry is turned off.
 One-electron integrals computed using PRISM.
 NBasis=    66 RedAO= T EigKep=  1.88D-02  NBF=    66
 NBsUse=    66 1.00D-06 EigRej= -1.00D+00 NBFU=    66
 Initial guess from the checkpoint file:  "/localscratch/rjackson.18103347.0/Gau-37260.chk"
 B after Tr=    -0.000052    0.000138    0.000263
         Rot=    1.000000   -0.000032    0.000014   -0.000008 Ang=  -0.00 deg.
 ExpMin= 1.22D-01 ExpMax= 1.28D+05 ExpMxC= 1.24D+03 IAcc=3 IRadAn=         5 AccDes= 0.00D+00
 Harris functional with IExCor=  205 and IRadAn=       5 diagonalized for initial guess.
 HarFok:  IExCor=  205 AccDes= 0.00D+00 IRadAn=         5 IDoV= 1 UseB2=F ITyADJ=14
 ICtDFT=  3500011 ScaDFX=  1.000000  1.000000  1.000000  1.000000
 FoFCou: FMM=F IPFlag=           0 FMFlag=      100000 FMFlg1=           0
         NFxFlg=           0 DoJE=T BraDBF=F KetDBF=T FulRan=T
         wScrn=  0.000000 ICntrl=     500 IOpCl=  0 I1Cent=   200000004 NGrid=           0
         NMat0=    1 NMatS0=      1 NMatT0=    0 NMatD0=    1 NMtDS0=    0 NMtDT0=    0
 Symmetry not used in FoFCou.
 Keep R1 ints in memory in canonical form, NReq=3411567.
 Requested convergence on RMS density matrix=1.00D-08 within 256 cycles.
 Requested convergence on MAX density matrix=1.00D-06.
 Requested convergence on             energy=1.00D-06.
 No special actions if energy rises.
 SCF Done:  E(RHF) =  -574.486738077     A.U. after   10 cycles
            NFock= 10  Conv=0.43D-08     -V/T= 1.9999
 ExpMin= 1.22D-01 ExpMax= 1.28D+05 ExpMxC= 1.24D+03 IAcc=3 IRadAn=         7 AccDes= 0.00D+00
 HarFok:  IExCor=  205 AccDes= 0.00D+00 IRadAn=         7 IDoV=-2 UseB2=F ITyADJ=14
 ICtDFT= 12500011 ScaDFX=  1.000000  1.000000  1.000000  1.000000
 Range of M.O.s used for correlation:     8    66
 NBasis=    66 NAE=    18 NBE=    18 NFC=     7 NFV=     0
 NROrb=     59 NOA=    11 NOB=    11 NVA=    48 NVB=    48
 Fully direct method using O(ONN) memory.
 JobTyp=1 Pass  1:  I=   8 to  18 NPSUse=  1 ParTrn=F ParDer=F DoDerP=T.
 Spin components of T(2) and E(2):
     alpha-alpha T2 =       0.2041635525D-01 E2=     -0.6158643076D-01
     alpha-beta  T2 =       0.1196794885D+00 E2=     -0.3692384439D+00
     beta-beta   T2 =       0.2041635525D-01 E2=     -0.6158643076D-01
 ANorm=    0.1077270718D+01
 E2 =    -0.4924113054D+00 EUMP2 =    -0.57497914938278D+03
          IDoAtm=1111111
          Differentiating once with respect to electric field.
                with respect to dipole field.
          Differentiating once with respect to nuclear coordinates.
 Keep R1 ints in memory in canonical form, NReq=3353799.
          There are     1 degrees of freedom in the 1st order CPHF.  IDoFFX=0 NUNeed=     1.
 LinEq1:  Iter=  0 NonCon=     1 RMS=7.82D-03 Max=1.09D-01 NDo=     1
 AX will form     1 AO Fock derivatives at one time.
 LinEq1:  Iter=  1 NonCon=     1 RMS=1.75D-03 Max=1.74D-02 NDo=     1
 LinEq1:  Iter=  2 NonCon=     1 RMS=5.66D-04 Max=6.32D-03 NDo=     1
 LinEq1:  Iter=  3 NonCon=     1 RMS=1.89D-04 Max=2.23D-03 NDo=     1
 LinEq1:  Iter=  4 NonCon=     1 RMS=6.40D-05 Max=6.23D-04 NDo=     1
 LinEq1:  Iter=  5 NonCon=     1 RMS=1.64D-05 Max=1.53D-04 NDo=     1
 LinEq1:  Iter=  6 NonCon=     1 RMS=4.08D-06 Max=3.47D-05 NDo=     1
 LinEq1:  Iter=  7 NonCon=     1 RMS=9.30D-07 Max=8.14D-06 NDo=     1
 LinEq1:  Iter=  8 NonCon=     1 RMS=2.24D-07 Max=1.55D-06 NDo=     1
 LinEq1:  Iter=  9 NonCon=     1 RMS=4.52D-08 Max=5.19D-07 NDo=     1
 LinEq1:  Iter= 10 NonCon=     1 RMS=1.01D-08 Max=1.07D-07 NDo=     1
 LinEq1:  Iter= 11 NonCon=     1 RMS=1.72D-09 Max=1.27D-08 NDo=     1
 LinEq1:  Iter= 12 NonCon=     1 RMS=3.37D-10 Max=2.65D-09 NDo=     1
 LinEq1:  Iter= 13 NonCon=     0 RMS=7.99D-11 Max=5.36D-10 NDo=     1
 Linear equations converged to 1.000D-10 1.000D-09 after    13 iterations.
 End of Minotr F.D. properties file   721 does not exist.
 End of Minotr F.D. properties file   722 does not exist.
 End of Minotr F.D. properties file   788 does not exist.
 Symmetrizing basis deriv contribution to polar:
 IMax=3 JMax=2 DiffMx= 0.00D+00
 Calling FoFJK, ICntrl=  10002127 FMM=F ISym2X=0 I1Cent= 0 IOpClX= 0 NMat=1 NMatS=1 NMatT=0.
 -------------------------------------------------------------------
 Center     Atomic                   Forces (Hartrees/Bohr)
 Number     Number              X              Y              Z
 -------------------------------------------------------------------
      1       17           0.000471905   -0.000406294   -0.000796426
      2        6          -0.001245115    0.000634992    0.001284346
      3        1          -0.000072757    0.000068847    0.000119984
      4        1           0.000259380    0.000120359    0.000176998
      5        1          -0.000074464    0.000054491    0.000129133
      6        8           0.000656054   -0.000468309   -0.000979738
      7        1           0.000004997   -0.000004087    0.000065703
 -------------------------------------------------------------------
 Cartesian Forces:  Max     0.001284346 RMS     0.000552131
 IRC-IRC-IRC-IRC-IRC-IRC-IRC-IRC-IRC-IRC-IRC-IRC-IRC-IRC-IRC-IRC-IRC-IRC
 Error in corrector energy =          -0.0000007474
 Magnitude of corrector gradient =     0.0024195824
 Magnitude of analytic gradient =      0.0025301803
 Magnitude of difference =             0.0003012346
 Angle between gradients (degrees)=    6.4919
 Pt  2 Step number   2 out of a maximum of  20
 Modified Bulirsch-Stoer Extrapolation Cycles:
    EPS =    0.000000333333333
 Maximum DWI energy   std dev =  0.000000826 at pt    48
 Maximum DWI gradient std dev =  0.353317518 at pt   143
 CORRECTOR INTEGRATION CONVERGENCE:
   Recorrection delta-x convergence threshold:    0.001826
   Delta-x Convergence NOT Met
 IRC-IRC-IRC-IRC-IRC-IRC-IRC-IRC-IRC-IRC-IRC-IRC-IRC-IRC-IRC-IRC-IRC-IRC
                          Input orientation:                          
 ---------------------------------------------------------------------
 Center     Atomic      Atomic             Coordinates (Angstroms)
 Number     Number       Type             X           Y           Z
 ---------------------------------------------------------------------
      1         17           0       -1.534109   -0.091578    0.015946
      2          6           0        0.363059    0.133028    0.122453
      3          1           0        0.655038   -0.363698    1.048943
      4          1           0        0.903119   -0.276900   -0.737012
      5          1           0        0.517109    1.212422    0.187246
      6          8           0        2.773277    0.114283   -0.169768
      7          1           0        2.817514   -0.792378    0.183072
 ---------------------------------------------------------------------
                    Distance matrix (angstroms):
                    1          2          3          4          5
     1  Cl   0.000000
     2  C    1.913384   0.000000
     3  H    2.435877   1.091042   0.000000
     4  H    2.557611   1.094708   1.805191   0.000000
     5  H    2.436649   1.092255   1.801582   1.794808   0.000000
     6  O    4.316300   2.427941   2.490112   1.993058   2.534495
     7  H    4.410859   2.623814   2.368501   2.185676   3.051410
                    6          7
     6  O    0.000000
     7  H    0.973903   0.000000
 Symmetry turned off by external request.
 Stoichiometry    CH4ClO(1-)
 Framework group  C1[X(CH4ClO)]
 Deg. of freedom    15
 Full point group                 C1      NOp   1
 Rotational constants (GHZ):    104.4680344      2.3062812      2.3002505
 Standard basis: CC-pVDZ (5D, 7F)
    66 basis functions,   165 primitive gaussians,    69 cartesian basis functions
    18 alpha electrons       18 beta electrons
       nuclear repulsion energy        89.5765060283 Hartrees.
 NAtoms=    7 NActive=    7 NUniq=    7 SFac= 1.00D+00 NAtFMM=   60 NAOKFM=F Big=F
 Integral buffers will be    131072 words long.
 Raffenetti 1 integral format.
 Two-electron integral symmetry is turned off.
 One-electron integrals computed using PRISM.
 NBasis=    66 RedAO= T EigKep=  1.88D-02  NBF=    66
 NBsUse=    66 1.00D-06 EigRej= -1.00D+00 NBFU=    66
 Initial guess from the checkpoint file:  "/localscratch/rjackson.18103347.0/Gau-37260.chk"
 B after Tr=     0.000035   -0.000114   -0.000224
         Rot=    1.000000    0.000034   -0.000012    0.000006 Ang=   0.00 deg.
 ExpMin= 1.22D-01 ExpMax= 1.28D+05 ExpMxC= 1.24D+03 IAcc=3 IRadAn=         5 AccDes= 0.00D+00
 Harris functional with IExCor=  205 and IRadAn=       5 diagonalized for initial guess.
 HarFok:  IExCor=  205 AccDes= 0.00D+00 IRadAn=         5 IDoV= 1 UseB2=F ITyADJ=14
 ICtDFT=  3500011 ScaDFX=  1.000000  1.000000  1.000000  1.000000
 FoFCou: FMM=F IPFlag=           0 FMFlag=      100000 FMFlg1=           0
         NFxFlg=           0 DoJE=T BraDBF=F KetDBF=T FulRan=T
         wScrn=  0.000000 ICntrl=     500 IOpCl=  0 I1Cent=   200000004 NGrid=           0
         NMat0=    1 NMatS0=      1 NMatT0=    0 NMatD0=    1 NMtDS0=    0 NMtDT0=    0
 Symmetry not used in FoFCou.
 Keep R1 ints in memory in canonical form, NReq=3411567.
 Requested convergence on RMS density matrix=1.00D-08 within 256 cycles.
 Requested convergence on MAX density matrix=1.00D-06.
 Requested convergence on             energy=1.00D-06.
 No special actions if energy rises.
 SCF Done:  E(RHF) =  -574.486724319     A.U. after    9 cycles
            NFock=  9  Conv=0.54D-08     -V/T= 1.9999
 ExpMin= 1.22D-01 ExpMax= 1.28D+05 ExpMxC= 1.24D+03 IAcc=3 IRadAn=         7 AccDes= 0.00D+00
 HarFok:  IExCor=  205 AccDes= 0.00D+00 IRadAn=         7 IDoV=-2 UseB2=F ITyADJ=14
 ICtDFT= 12500011 ScaDFX=  1.000000  1.000000  1.000000  1.000000
 Range of M.O.s used for correlation:     8    66
 NBasis=    66 NAE=    18 NBE=    18 NFC=     7 NFV=     0
 NROrb=     59 NOA=    11 NOB=    11 NVA=    48 NVB=    48
 Fully direct method using O(ONN) memory.
 JobTyp=1 Pass  1:  I=   8 to  18 NPSUse=  1 ParTrn=F ParDer=F DoDerP=T.
 Spin components of T(2) and E(2):
     alpha-alpha T2 =       0.2041636921D-01 E2=     -0.6158938598D-01
     alpha-beta  T2 =       0.1196743638D+00 E2=     -0.3692462961D+00
     beta-beta   T2 =       0.2041636921D-01 E2=     -0.6158938598D-01
 ANorm=    0.1077268352D+01
 E2 =    -0.4924250680D+00 EUMP2 =    -0.57497914938658D+03
          IDoAtm=1111111
          Differentiating once with respect to electric field.
                with respect to dipole field.
          Differentiating once with respect to nuclear coordinates.
 Keep R1 ints in memory in canonical form, NReq=3353799.
          There are     1 degrees of freedom in the 1st order CPHF.  IDoFFX=0 NUNeed=     1.
 LinEq1:  Iter=  0 NonCon=     1 RMS=7.81D-03 Max=1.09D-01 NDo=     1
 AX will form     1 AO Fock derivatives at one time.
 LinEq1:  Iter=  1 NonCon=     1 RMS=1.74D-03 Max=1.74D-02 NDo=     1
 LinEq1:  Iter=  2 NonCon=     1 RMS=5.65D-04 Max=6.31D-03 NDo=     1
 LinEq1:  Iter=  3 NonCon=     1 RMS=1.88D-04 Max=2.23D-03 NDo=     1
 LinEq1:  Iter=  4 NonCon=     1 RMS=6.39D-05 Max=6.21D-04 NDo=     1
 LinEq1:  Iter=  5 NonCon=     1 RMS=1.64D-05 Max=1.52D-04 NDo=     1
 LinEq1:  Iter=  6 NonCon=     1 RMS=4.07D-06 Max=3.47D-05 NDo=     1
 LinEq1:  Iter=  7 NonCon=     1 RMS=9.27D-07 Max=8.10D-06 NDo=     1
 LinEq1:  Iter=  8 NonCon=     1 RMS=2.23D-07 Max=1.54D-06 NDo=     1
 LinEq1:  Iter=  9 NonCon=     1 RMS=4.49D-08 Max=5.18D-07 NDo=     1
 LinEq1:  Iter= 10 NonCon=     1 RMS=1.00D-08 Max=1.06D-07 NDo=     1
 LinEq1:  Iter= 11 NonCon=     1 RMS=1.71D-09 Max=1.28D-08 NDo=     1
 LinEq1:  Iter= 12 NonCon=     1 RMS=3.37D-10 Max=2.64D-09 NDo=     1
 LinEq1:  Iter= 13 NonCon=     0 RMS=7.98D-11 Max=5.35D-10 NDo=     1
 Linear equations converged to 1.000D-10 1.000D-09 after    13 iterations.
 End of Minotr F.D. properties file   721 does not exist.
 End of Minotr F.D. properties file   722 does not exist.
 End of Minotr F.D. properties file   788 does not exist.
 Symmetrizing basis deriv contribution to polar:
 IMax=3 JMax=2 DiffMx= 0.00D+00
 Calling FoFJK, ICntrl=  10002127 FMM=F ISym2X=0 I1Cent= 0 IOpClX= 0 NMat=1 NMatS=1 NMatT=0.
 -------------------------------------------------------------------
 Center     Atomic                   Forces (Hartrees/Bohr)
 Number     Number              X              Y              Z
 -------------------------------------------------------------------
      1       17           0.000426247   -0.000417919   -0.000802705
      2        6          -0.001046548    0.000604048    0.001189623
      3        1          -0.000125144    0.000082275    0.000136796
      4        1           0.000185284    0.000157129    0.000258250
      5        1          -0.000121839    0.000061230    0.000152889
      6        8           0.000673607   -0.000500351   -0.000992586
      7        1           0.000008392    0.000013588    0.000057734
 -------------------------------------------------------------------
 Cartesian Forces:  Max     0.001189623 RMS     0.000524530
 IRC-IRC-IRC-IRC-IRC-IRC-IRC-IRC-IRC-IRC-IRC-IRC-IRC-IRC-IRC-IRC-IRC-IRC
 Error in corrector energy =          -0.0000001253
 Magnitude of corrector gradient =     0.0024770953
 Magnitude of analytic gradient =      0.0024036967
 Magnitude of difference =             0.0001428008
 Angle between gradients (degrees)=    2.8765
 Pt  2 Step number   3 out of a maximum of  20
 Modified Bulirsch-Stoer Extrapolation Cycles:
    EPS =    0.000000333333333
 Maximum DWI energy   std dev =  0.000000726 at pt    48
 Maximum DWI gradient std dev =  0.375723456 at pt   107
 CORRECTOR INTEGRATION CONVERGENCE:
   Recorrection delta-x convergence threshold:    0.001826
   Delta-x Convergence NOT Met
 IRC-IRC-IRC-IRC-IRC-IRC-IRC-IRC-IRC-IRC-IRC-IRC-IRC-IRC-IRC-IRC-IRC-IRC
                          Input orientation:                          
 ---------------------------------------------------------------------
 Center     Atomic      Atomic             Coordinates (Angstroms)
 Number     Number       Type             X           Y           Z
 ---------------------------------------------------------------------
      1         17           0       -1.534174   -0.091592    0.015929
      2          6           0        0.363379    0.133124    0.122597
      3          1           0        0.654823   -0.363653    1.049216
      4          1           0        0.903265   -0.276792   -0.736834
      5          1           0        0.516974    1.212569    0.187506
      6          8           0        2.773183    0.114280   -0.169776
      7          1           0        2.817468   -0.792298    0.183271
 ---------------------------------------------------------------------
                    Distance matrix (angstroms):
                    1          2          3          4          5
     1  Cl   0.000000
     2  C    1.913788   0.000000
     3  H    2.435859   1.091031   0.000000
     4  H    2.557746   1.094591   1.805338   0.000000
     5  H    2.436696   1.092249   1.801673   1.794943   0.000000
     6  O    4.316271   2.427548   2.490343   1.992758   2.534634
     7  H    4.410871   2.623478   2.368677   2.185523   3.051521
                    6          7
     6  O    0.000000
     7  H    0.973902   0.000000
 Symmetry turned off by external request.
 Stoichiometry    CH4ClO(1-)
 Framework group  C1[X(CH4ClO)]
 Deg. of freedom    15
 Full point group                 C1      NOp   1
 Rotational constants (GHZ):    104.4360468      2.3062597      2.3002362
 Standard basis: CC-pVDZ (5D, 7F)
    66 basis functions,   165 primitive gaussians,    69 cartesian basis functions
    18 alpha electrons       18 beta electrons
       nuclear repulsion energy        89.5726311736 Hartrees.
 NAtoms=    7 NActive=    7 NUniq=    7 SFac= 1.00D+00 NAtFMM=   60 NAOKFM=F Big=F
 Integral buffers will be    131072 words long.
 Raffenetti 1 integral format.
 Two-electron integral symmetry is turned off.
 One-electron integrals computed using PRISM.
 NBasis=    66 RedAO= T EigKep=  1.88D-02  NBF=    66
 NBsUse=    66 1.00D-06 EigRej= -1.00D+00 NBFU=    66
 Initial guess from the checkpoint file:  "/localscratch/rjackson.18103347.0/Gau-37260.chk"
 B after Tr=    -0.000010    0.000037    0.000074
         Rot=    1.000000   -0.000001    0.000007   -0.000003 Ang=  -0.00 deg.
 ExpMin= 1.22D-01 ExpMax= 1.28D+05 ExpMxC= 1.24D+03 IAcc=3 IRadAn=         5 AccDes= 0.00D+00
 Harris functional with IExCor=  205 and IRadAn=       5 diagonalized for initial guess.
 HarFok:  IExCor=  205 AccDes= 0.00D+00 IRadAn=         5 IDoV= 1 UseB2=F ITyADJ=14
 ICtDFT=  3500011 ScaDFX=  1.000000  1.000000  1.000000  1.000000
 FoFCou: FMM=F IPFlag=           0 FMFlag=      100000 FMFlg1=           0
         NFxFlg=           0 DoJE=T BraDBF=F KetDBF=T FulRan=T
         wScrn=  0.000000 ICntrl=     500 IOpCl=  0 I1Cent=   200000004 NGrid=           0
         NMat0=    1 NMatS0=      1 NMatT0=    0 NMatD0=    1 NMtDS0=    0 NMtDT0=    0
 Symmetry not used in FoFCou.
 Keep R1 ints in memory in canonical form, NReq=3411567.
 Requested convergence on RMS density matrix=1.00D-08 within 256 cycles.
 Requested convergence on MAX density matrix=1.00D-06.
 Requested convergence on             energy=1.00D-06.
 No special actions if energy rises.
 SCF Done:  E(RHF) =  -574.486727618     A.U. after    8 cycles
            NFock=  8  Conv=0.98D-08     -V/T= 1.9999
 ExpMin= 1.22D-01 ExpMax= 1.28D+05 ExpMxC= 1.24D+03 IAcc=3 IRadAn=         7 AccDes= 0.00D+00
 HarFok:  IExCor=  205 AccDes= 0.00D+00 IRadAn=         7 IDoV=-2 UseB2=F ITyADJ=14
 ICtDFT= 12500011 ScaDFX=  1.000000  1.000000  1.000000  1.000000
 Range of M.O.s used for correlation:     8    66
 NBasis=    66 NAE=    18 NBE=    18 NFC=     7 NFV=     0
 NROrb=     59 NOA=    11 NOB=    11 NVA=    48 NVB=    48
 Fully direct method using O(ONN) memory.
 JobTyp=1 Pass  1:  I=   8 to  18 NPSUse=  1 ParTrn=F ParDer=F DoDerP=T.
 Spin components of T(2) and E(2):
     alpha-alpha T2 =       0.2041660066D-01 E2=     -0.6158866417D-01
     alpha-beta  T2 =       0.1196773120D+00 E2=     -0.3692445345D+00
     beta-beta   T2 =       0.2041660066D-01 E2=     -0.6158866417D-01
 ANorm=    0.1077269935D+01
 E2 =    -0.4924218628D+00 EUMP2 =    -0.57497914948101D+03
          IDoAtm=1111111
          Differentiating once with respect to electric field.
                with respect to dipole field.
          Differentiating once with respect to nuclear coordinates.
 Keep R1 ints in memory in canonical form, NReq=3353799.
          There are     1 degrees of freedom in the 1st order CPHF.  IDoFFX=0 NUNeed=     1.
 LinEq1:  Iter=  0 NonCon=     1 RMS=7.81D-03 Max=1.09D-01 NDo=     1
 AX will form     1 AO Fock derivatives at one time.
 LinEq1:  Iter=  1 NonCon=     1 RMS=1.75D-03 Max=1.74D-02 NDo=     1
 LinEq1:  Iter=  2 NonCon=     1 RMS=5.65D-04 Max=6.32D-03 NDo=     1
 LinEq1:  Iter=  3 NonCon=     1 RMS=1.88D-04 Max=2.23D-03 NDo=     1
 LinEq1:  Iter=  4 NonCon=     1 RMS=6.39D-05 Max=6.22D-04 NDo=     1
 LinEq1:  Iter=  5 NonCon=     1 RMS=1.64D-05 Max=1.53D-04 NDo=     1
 LinEq1:  Iter=  6 NonCon=     1 RMS=4.07D-06 Max=3.47D-05 NDo=     1
 LinEq1:  Iter=  7 NonCon=     1 RMS=9.28D-07 Max=8.12D-06 NDo=     1
 LinEq1:  Iter=  8 NonCon=     1 RMS=2.23D-07 Max=1.54D-06 NDo=     1
 LinEq1:  Iter=  9 NonCon=     1 RMS=4.50D-08 Max=5.18D-07 NDo=     1
 LinEq1:  Iter= 10 NonCon=     1 RMS=1.00D-08 Max=1.06D-07 NDo=     1
 LinEq1:  Iter= 11 NonCon=     1 RMS=1.72D-09 Max=1.28D-08 NDo=     1
 LinEq1:  Iter= 12 NonCon=     1 RMS=3.37D-10 Max=2.64D-09 NDo=     1
 LinEq1:  Iter= 13 NonCon=     0 RMS=7.99D-11 Max=5.35D-10 NDo=     1
 Linear equations converged to 1.000D-10 1.000D-09 after    13 iterations.
 End of Minotr F.D. properties file   721 does not exist.
 End of Minotr F.D. properties file   722 does not exist.
 End of Minotr F.D. properties file   788 does not exist.
 Symmetrizing basis deriv contribution to polar:
 IMax=3 JMax=2 DiffMx= 0.00D+00
 Calling FoFJK, ICntrl=  10002127 FMM=F ISym2X=0 I1Cent= 0 IOpClX= 0 NMat=1 NMatS=1 NMatT=0.
 -------------------------------------------------------------------
 Center     Atomic                   Forces (Hartrees/Bohr)
 Number     Number              X              Y              Z
 -------------------------------------------------------------------
      1       17           0.000450113   -0.000414506   -0.000804524
      2        6          -0.001135557    0.000629997    0.001251265
      3        1          -0.000105502    0.000078995    0.000130902
      4        1           0.000220139    0.000130268    0.000204568
      5        1          -0.000105169    0.000057204    0.000146062
      6        8           0.000668467   -0.000497465   -0.000985067
      7        1           0.000007510    0.000015508    0.000056795
 -------------------------------------------------------------------
 Cartesian Forces:  Max     0.001251265 RMS     0.000539814
 IRC-IRC-IRC-IRC-IRC-IRC-IRC-IRC-IRC-IRC-IRC-IRC-IRC-IRC-IRC-IRC-IRC-IRC
 Error in corrector energy =          -0.0000000210
 Magnitude of corrector gradient =     0.0024481015
 Magnitude of analytic gradient =      0.0024737381
 Magnitude of difference =             0.0000547952
 Angle between gradients (degrees)=    1.1275
 Pt  2 Step number   4 out of a maximum of  20
 Modified Bulirsch-Stoer Extrapolation Cycles:
    EPS =    0.000000333333333
 Maximum DWI energy   std dev =  0.000000778 at pt    48
 Maximum DWI gradient std dev =  0.368677091 at pt   107
 CORRECTOR INTEGRATION CONVERGENCE:
   Recorrection delta-x convergence threshold:    0.001826
   Delta-x Convergence Met
 Point Number:   2          Path Number:   1
   CHANGE IN THE REACTION COORDINATE =    0.19096
   NET REACTION COORDINATE UP TO THIS POINT =    0.38162
  # OF POINTS ALONG THE PATH =   2
  # OF STEPS =   4

 Maximum number of steps reached.
 Calculation of FORWARD path complete.
 Reaction path calculation complete.
 
 Energies reported relative to the TS energy of        -574.978995
 --------------------------------------------------------------------------
    Summary of reaction path following
 --------------------------------------------------------------------------
                        Energy    RxCoord
   1                    0.00000   0.00000
   2                   -0.00004   0.19066
   3                   -0.00015   0.38162
 --------------------------------------------------------------------------
 
 Total number of points:                    2
 Total number of gradient calculations:     8
 Total number of Hessian calculations:      1
 IRC-IRC-IRC-IRC-IRC-IRC-IRC-IRC-IRC-IRC-IRC-IRC-IRC-IRC-IRC-IRC-IRC-IRC
                          Input orientation:                          
 ---------------------------------------------------------------------
 Center     Atomic      Atomic             Coordinates (Angstroms)
 Number     Number       Type             X           Y           Z
 ---------------------------------------------------------------------
      1         17           0       -1.534174   -0.091592    0.015929
      2          6           0        0.363379    0.133124    0.122597
      3          1           0        0.654823   -0.363653    1.049216
      4          1           0        0.903265   -0.276792   -0.736834
      5          1           0        0.516974    1.212569    0.187506
      6          8           0        2.773183    0.114280   -0.169776
      7          1           0        2.817468   -0.792298    0.183271
 ---------------------------------------------------------------------
                    Distance matrix (angstroms):
                    1          2          3          4          5
     1  Cl   0.000000
     2  C    1.913788   0.000000
     3  H    2.435859   1.091031   0.000000
     4  H    2.557746   1.094591   1.805338   0.000000
     5  H    2.436696   1.092249   1.801673   1.794943   0.000000
     6  O    4.316271   2.427548   2.490343   1.992758   2.534634
     7  H    4.410871   2.623478   2.368677   2.185523   3.051521
                    6          7
     6  O    0.000000
     7  H    0.973902   0.000000
 Symmetry turned off by external request.
 Stoichiometry    CH4ClO(1-)
 Framework group  C1[X(CH4ClO)]
 Deg. of freedom    15
 Full point group                 C1      NOp   1
 Rotational constants (GHZ):    104.4360468      2.3062597      2.3002362

 **********************************************************************

            Population analysis using the SCF density.

 **********************************************************************

 Alpha  occ. eigenvalues -- -104.63397 -20.16813 -11.11342 -10.36008  -7.82731
 Alpha  occ. eigenvalues --   -7.82485  -7.82484  -0.92036  -0.90277  -0.72331
 Alpha  occ. eigenvalues --   -0.41959  -0.41065  -0.33735  -0.26481  -0.26288
 Alpha  occ. eigenvalues --   -0.24436  -0.11228  -0.10149
 Alpha virt. eigenvalues --    0.35471   0.39347   0.42111   0.45921   0.48300
 Alpha virt. eigenvalues --    0.76247   0.77280   0.88206   0.93920   0.94952
 Alpha virt. eigenvalues --    0.96022   1.03371   1.03612   1.05699   1.10386
 Alpha virt. eigenvalues --    1.14228   1.16992   1.18247   1.18420   1.19951
 Alpha virt. eigenvalues --    1.37141   1.43851   1.47326   1.57601   1.61389
 Alpha virt. eigenvalues --    1.65974   1.74167   1.83008   1.86890   1.88372
 Alpha virt. eigenvalues --    2.01710   2.06194   2.13151   2.17894   2.22487
 Alpha virt. eigenvalues --    2.32031   2.46550   2.60440   2.64426   2.76839
 Alpha virt. eigenvalues --    2.92208   2.94366   2.95037   3.37735   3.43782
 Alpha virt. eigenvalues --    3.67286   3.68054   4.40420
          Condensed to atoms (all electrons):
               1          2          3          4          5          6
     1  Cl  17.432630   0.096110  -0.035883  -0.024069  -0.037319   0.002234
     2  C    0.096110   4.706307   0.413103   0.356256   0.419181   0.001949
     3  H   -0.035883   0.413103   0.601224  -0.027844  -0.018305   0.010035
     4  H   -0.024069   0.356256  -0.027844   0.556291  -0.019509   0.059445
     5  H   -0.037319   0.419181  -0.018305  -0.019509   0.581400   0.005807
     6  O    0.002234   0.001949   0.010035   0.059445   0.005807   8.479902
     7  H   -0.000642  -0.006994   0.001627  -0.012502  -0.001202   0.294060
               7
     1  Cl  -0.000642
     2  C   -0.006994
     3  H    0.001627
     4  H   -0.012502
     5  H   -0.001202
     6  O    0.294060
     7  H    0.691169
 Mulliken charges:
               1
     1  Cl  -0.433060
     2  C    0.014088
     3  H    0.056042
     4  H    0.111932
     5  H    0.069946
     6  O   -0.853431
     7  H    0.034483
 Sum of Mulliken charges =  -1.00000
 Mulliken charges with hydrogens summed into heavy atoms:
               1
     1  Cl  -0.433060
     2  C    0.252008
     6  O   -0.818947
 APT charges:
               1
     1  Cl  -0.330999
     2  C   -0.571452
     3  H    0.220745
     4  H    0.159284
     5  H    0.258019
     6  O   -0.823105
     7  H    0.087508
 Sum of APT charges =  -1.00000
 APT charges with hydrogens summed into heavy atoms:
               1
     1  Cl  -0.330999
     2  C    0.066595
     6  O   -0.735597
 Electronic spatial extent (au):  <R**2>=            505.2444
 Charge=             -1.0000 electrons
 Dipole moment (field-independent basis, Debye):
    X=             -6.9044    Y=             -0.9008    Z=              1.1088  Tot=              7.0506
 Quadrupole moment (field-independent basis, Debye-Ang):
   XX=            -64.6915   YY=            -27.0804   ZZ=            -28.3344
   XY=             -4.0414   XZ=              2.9591   YZ=             -0.2854
 Traceless Quadrupole moment (field-independent basis, Debye-Ang):
   XX=            -24.6561   YY=             12.9550   ZZ=             11.7011
   XY=             -4.0414   XZ=              2.9591   YZ=             -0.2854
 Octapole moment (field-independent basis, Debye-Ang**2):
  XXX=            -92.1347  YYY=              0.8148  ZZZ=             -0.3308  XYY=              0.4487
  XXY=            -10.6591  XXZ=              7.5835  XZZ=             -2.6390  YZZ=             -0.5041
  YYZ=             -0.0491  XYZ=             -0.7168
 Hexadecapole moment (field-independent basis, Debye-Ang**3):
 XXXX=           -829.7920 YYYY=            -37.3603 ZZZZ=            -37.1010 XXXY=            -37.6681
 XXXZ=             31.8353 YYYX=             -8.6837 YYYZ=              0.1869 ZZZX=              8.8124
 ZZZY=             -0.1600 XXYY=            -96.2551 XXZZ=           -104.7798 YYZZ=            -12.8204
 XXYZ=             -1.8094 YYXZ=              2.9458 ZZXY=             -3.1284
 N-N= 8.957263117356D+01 E-N=-1.553749409135D+03  KE= 5.745355874912D+02
  Exact polarizability:   0.000   0.000   0.000   0.000   0.000   0.000
 Approx polarizability:  38.442   1.244  21.680   0.450  -1.391  18.733

 This type of calculation cannot be archived.


 NEVER LISTEN TO CRITICISM
 OR YOU'LL BE DOIN' EVERYBODY ELSE'S THING BUT BUT YOUR OWN.

                                               -- ANDY CAPP
 Job cpu time:       0 days  0 hours  1 minutes 37.5 seconds.
 File lengths (MBytes):  RWF=    214 Int=      0 D2E=      0 Chk=      2 Scr=      1
 Normal termination of Gaussian 09 at Tue Mar 12 02:20:59 2019.
