 Entering Gaussian System, Link 0=g09
 Initial command:
 /opt/software/gaussian/g09.e01/l1.exe "/localscratch/rjackson.10730419.0/Gau-17280.inp" -scrdir="/localscratch/rjackson.10730419.0/"
 Entering Link 1 = /opt/software/gaussian/g09.e01/l1.exe PID=     17281.
  
 Copyright (c) 1988,1990,1992,1993,1995,1998,2003,2009,2015,
            Gaussian, Inc.  All Rights Reserved.
  
 This is part of the Gaussian(R) 09 program.  It is based on
 the Gaussian(R) 03 system (copyright 2003, Gaussian, Inc.),
 the Gaussian(R) 98 system (copyright 1998, Gaussian, Inc.),
 the Gaussian(R) 94 system (copyright 1995, Gaussian, Inc.),
 the Gaussian 92(TM) system (copyright 1992, Gaussian, Inc.),
 the Gaussian 90(TM) system (copyright 1990, Gaussian, Inc.),
 the Gaussian 88(TM) system (copyright 1988, Gaussian, Inc.),
 the Gaussian 86(TM) system (copyright 1986, Carnegie Mellon
 University), and the Gaussian 82(TM) system (copyright 1983,
 Carnegie Mellon University). Gaussian is a federally registered
 trademark of Gaussian, Inc.
  
 This software contains proprietary and confidential information,
 including trade secrets, belonging to Gaussian, Inc.
  
 This software is provided under written license and may be
 used, copied, transmitted, or stored only in accord with that
 written license.
  
 The following legend is applicable only to US Government
 contracts under FAR:
  
                    RESTRICTED RIGHTS LEGEND
  
 Use, reproduction and disclosure by the US Government is
 subject to restrictions as set forth in subparagraphs (a)
 and (c) of the Commercial Computer Software - Restricted
 Rights clause in FAR 52.227-19.
  
 Gaussian, Inc.
 340 Quinnipiac St., Bldg. 40, Wallingford CT 06492
  
  
 ---------------------------------------------------------------
 Warning -- This program may not be used in any manner that
 competes with the business of Gaussian, Inc. or will provide
 assistance to any competitor of Gaussian, Inc.  The licensee
 of this program is prohibited from giving any competitor of
 Gaussian, Inc. access to this program.  By using this program,
 the user acknowledges that Gaussian, Inc. is engaged in the
 business of creating and licensing software in the field of
 computational chemistry and represents and warrants to the
 licensee that it is not a competitor of Gaussian, Inc. and that
 it will not use this program in any manner prohibited above.
 ---------------------------------------------------------------
  

 Cite this work as:
 Gaussian 09, Revision E.01,
 M. J. Frisch, G. W. Trucks, H. B. Schlegel, G. E. Scuseria, 
 M. A. Robb, J. R. Cheeseman, G. Scalmani, V. Barone, B. Mennucci, 
 G. A. Petersson, H. Nakatsuji, M. Caricato, X. Li, H. P. Hratchian, 
 A. F. Izmaylov, J. Bloino, G. Zheng, J. L. Sonnenberg, M. Hada, 
 M. Ehara, K. Toyota, R. Fukuda, J. Hasegawa, M. Ishida, T. Nakajima, 
 Y. Honda, O. Kitao, H. Nakai, T. Vreven, J. A. Montgomery, Jr., 
 J. E. Peralta, F. Ogliaro, M. Bearpark, J. J. Heyd, E. Brothers, 
 K. N. Kudin, V. N. Staroverov, T. Keith, R. Kobayashi, J. Normand, 
 K. Raghavachari, A. Rendell, J. C. Burant, S. S. Iyengar, J. Tomasi, 
 M. Cossi, N. Rega, J. M. Millam, M. Klene, J. E. Knox, J. B. Cross, 
 V. Bakken, C. Adamo, J. Jaramillo, R. Gomperts, R. E. Stratmann, 
 O. Yazyev, A. J. Austin, R. Cammi, C. Pomelli, J. W. Ochterski, 
 R. L. Martin, K. Morokuma, V. G. Zakrzewski, G. A. Voth, 
 P. Salvador, J. J. Dannenberg, S. Dapprich, A. D. Daniels, 
 O. Farkas, J. B. Foresman, J. V. Ortiz, J. Cioslowski, 
 and D. J. Fox, Gaussian, Inc., Wallingford CT, 2013.
 
 ******************************************
 Gaussian 09:  EM64L-G09RevE.01 30-Nov-2015
                10-Jan-2019 
 ******************************************
 ----------------------
 # mp2/6-31G IRC=CALCFC
 ----------------------
 1/10=4,18=10,38=1,44=3/1,23;
 2/12=2,17=6,18=5,29=1,40=1/2;
 3/5=1,6=6,11=9,16=1,25=1,30=1,71=2,140=1/1,2,3;
 4//1;
 5/5=2,38=5/2;
 8/6=3,8=1,10=2,19=11,30=-1/1;
 9/15=3,16=-3/6;
 11/6=1,8=1,15=11,17=12,24=-1,27=1,28=-2,29=300,32=6,42=3/1,2,10;
 10/6=2,21=1/2;
 8/6=4,8=1,10=2,19=11,30=-1/11,4;
 10/5=1,20=4/2;
 11/12=2,14=11,16=1,17=2,28=-2,42=3/2,10,12;
 6/7=2,8=2,9=2,10=2/1;
 7/10=1,12=2,25=1,44=2/1,2,3,16;
 1/10=4,18=10,44=3/23(2);
 2/29=1/2;
 99/5=20/99;
 2/29=1/2;
 3/5=1,6=6,11=9,16=1,25=1,30=1,71=2,140=1/1,2,3;
 4/5=5,16=3,69=1/1;
 5/5=2,38=5/2;
 8/6=3,8=1,10=2,19=11,30=-1/1;
 9/15=3,16=-3/6;
 11/6=1,8=1,15=11,17=12,24=-1,27=1,28=-2,29=300,32=6,42=3/1,2,10;
 10/6=2,21=1/2;
 8/6=4,8=1,10=2,19=11,30=-1/11,4;
 10/5=1,20=4/2;
 11/12=2,14=11,16=1,17=2,28=-2,42=3/2,10,12;
 7/10=1,12=2,25=1,44=2/1,2,3,16;
 1/18=10,44=3/23(-12);
 2/29=1/2;
 6/7=2,8=2,9=2,10=2/1;
 99/5=20/99;
 ---------
 HO-CH3-CN
 ---------
 Symbolic Z-matrix:
 Charge = -1 Multiplicity = 1
 C                    -0.00561   0.        0.01368 
 C                     1.94932   0.       -0.01683 
 7                     3.16347   0.       -0.02297 
 H                    -0.09532   0.        1.08779 
 H                    -0.096     0.93459  -0.51561 
 H                    -0.096    -0.93459  -0.51561 
 O                    -2.06122   0.        0.09209 
 H                    -2.31442   0.       -0.86789 
 
 IRC-IRC-IRC-IRC-IRC-IRC-IRC-IRC-IRC-IRC-IRC-IRC-IRC-IRC-IRC-IRC-IRC-IRC
 ------------------------------------------------------------------------
 INPUT DATA FOR L123
 ------------------------------------------------------------------------
 GENERAL PARAMETERS:
 Follow reaction path in both directions.
 Maximum points per path      =  10
 Step size                    =   0.100 bohr
 Integration scheme           = HPC                                 
    Redo corrector integration= Yes                                 
    DWI Weight Power          =  2
    DWI will use Hessian update vectors when possible.
    Max correction cycles     =  20
 Initial Hessian              = CalcFC
 Hessian evaluation           = All updating
 Hessian updating method      = Bofill                              
 ------------------------------------------------------------------------
 IRC-IRC-IRC-IRC-IRC-IRC-IRC-IRC-IRC-IRC-IRC-IRC-IRC-IRC-IRC-IRC-IRC-IRC
                          Input orientation:                          
 ---------------------------------------------------------------------
 Center     Atomic      Atomic             Coordinates (Angstroms)
 Number     Number       Type             X           Y           Z
 ---------------------------------------------------------------------
      1          6           0       -0.005612    0.000000    0.013680
      2          6           0        1.949317    0.000000   -0.016832
      3          7           0        3.163472    0.000000   -0.022969
      4          1           0       -0.095322    0.000000    1.087788
      5          1           0       -0.096002    0.934585   -0.515611
      6          1           0       -0.096002   -0.934585   -0.515611
      7          8           0       -2.061222    0.000000    0.092091
      8          1           0       -2.314425    0.000000   -0.867889
 ---------------------------------------------------------------------
                    Distance matrix (angstroms):
                    1          2          3          4          5
     1  C    0.000000
     2  C    1.955167   0.000000
     3  N    3.169296   1.214171   0.000000
     4  H    1.077848   2.323948   3.442894   0.000000
     5  H    1.077854   2.303380   3.426414   1.855893   0.000000
     6  H    1.077854   2.303380   3.426414   1.855893   1.869170
     7  O    2.057105   4.012018   5.225961   2.203673   2.259389
     8  H    2.471393   4.347849   5.542675   2.957886   2.432889
                    6          7          8
     6  H    0.000000
     7  O    2.259389   0.000000
     8  H    2.432889   0.992811   0.000000
 Symmetry turned off by external request.
 Stoichiometry    C2H4NO(1-)
 Framework group  CS[SG(C2H2NO),X(H2)]
 Deg. of freedom    12
 Full point group                 CS      NOp   2
 Rotational constants (GHZ):    115.7228614      2.0778226      2.0706203
 Standard basis: 6-31G (6D, 7F)
    44 basis functions,   104 primitive gaussians,    44 cartesian basis functions
    16 alpha electrons       16 beta electrons
       nuclear repulsion energy        89.6922391924 Hartrees.
 NAtoms=    8 NActive=    8 NUniq=    8 SFac= 1.00D+00 NAtFMM=   60 NAOKFM=F Big=F
 Integral buffers will be    131072 words long.
 Raffenetti 1 integral format.
 Two-electron integral symmetry is turned off.
 One-electron integrals computed using PRISM.
 NBasis=    44 RedAO= T EigKep=  4.49D-03  NBF=    44
 NBsUse=    44 1.00D-06 EigRej= -1.00D+00 NBFU=    44
 ExpMin= 1.61D-01 ExpMax= 5.48D+03 ExpMxC= 8.25D+02 IAcc=1 IRadAn=         1 AccDes= 0.00D+00
 Harris functional with IExCor=  205 and IRadAn=       1 diagonalized for initial guess.
 HarFok:  IExCor=  205 AccDes= 0.00D+00 IRadAn=         1 IDoV= 1 UseB2=F ITyADJ=14
 ICtDFT=  3500011 ScaDFX=  1.000000  1.000000  1.000000  1.000000
 FoFCou: FMM=F IPFlag=           0 FMFlag=      100000 FMFlg1=           0
         NFxFlg=           0 DoJE=T BraDBF=F KetDBF=T FulRan=T
         wScrn=  0.000000 ICntrl=     500 IOpCl=  0 I1Cent=   200000004 NGrid=           0
         NMat0=    1 NMatS0=      1 NMatT0=    0 NMatD0=    1 NMtDS0=    0 NMtDT0=    0
 Symmetry not used in FoFCou.
 Keep R1 ints in memory in canonical form, NReq=1336319.
 Requested convergence on RMS density matrix=1.00D-08 within 128 cycles.
 Requested convergence on MAX density matrix=1.00D-06.
 Requested convergence on             energy=1.00D-06.
 No special actions if energy rises.
 SCF Done:  E(RHF) =  -207.163557862     A.U. after   13 cycles
            NFock= 13  Conv=0.88D-08     -V/T= 2.0014
 ExpMin= 1.61D-01 ExpMax= 5.48D+03 ExpMxC= 8.25D+02 IAcc=3 IRadAn=         5 AccDes= 0.00D+00
 HarFok:  IExCor=  205 AccDes= 0.00D+00 IRadAn=         5 IDoV=-2 UseB2=F ITyADJ=14
 ICtDFT= 12500011 ScaDFX=  1.000000  1.000000  1.000000  1.000000
 Range of M.O.s used for correlation:     5    44
 NBasis=    44 NAE=    16 NBE=    16 NFC=     4 NFV=     0
 NROrb=     40 NOA=    12 NOB=    12 NVA=    28 NVB=    28
 Disk-based method using ON**2 memory for 12 occupieds at a time.
 Permanent disk used for amplitudes=      246064 words.
 Estimated scratch disk usage=     2589912 words.
 Actual    scratch disk usage=     2589912 words.
 JobTyp=1 Pass  1:  I=   5 to  16 NPSUse=  1 ParTrn=F ParDer=F DoDerP=T.
 (rs|ai) integrals will be sorted in core.
 Spin components of T(2) and E(2):
     alpha-alpha T2 =       0.2335872556D-01 E2=     -0.5544634226D-01
     alpha-beta  T2 =       0.1398122327D+00 E2=     -0.3329239699D+00
     beta-beta   T2 =       0.2335872556D-01 E2=     -0.5544634226D-01
 ANorm=    0.1089279433D+01
 E2 =    -0.4438166544D+00 EUMP2 =    -0.20760737451636D+03
 G2DrvN: will do     9 centers at a time, making    1 passes.
 Calling FoFCou, ICntrl=  3107 FMM=F I1Cent=   0 AccDes= 0.00D+00.
 End of G2Drv F.D. properties file   721 does not exist.
 End of G2Drv F.D. properties file   722 does not exist.
 End of G2Drv F.D. properties file   788 does not exist.
          IDoAtm=11111111
          Differentiating once with respect to electric field.
                with respect to dipole field.
          Differentiating once with respect to nuclear coordinates.
 Keep R1 ints in memory in canonical form, NReq=1319944.
          There are    27 degrees of freedom in the 1st order CPHF.  IDoFFX=6 NUNeed=    27.
     24 vectors produced by pass  0 Test12= 1.66D-15 3.70D-09 XBig12= 1.93D+01 2.26D+00.
 AX will form    24 AO Fock derivatives at one time.
     24 vectors produced by pass  1 Test12= 1.66D-15 3.70D-09 XBig12= 3.45D+00 7.08D-01.
     24 vectors produced by pass  2 Test12= 1.66D-15 3.70D-09 XBig12= 1.08D-01 9.56D-02.
     24 vectors produced by pass  3 Test12= 1.66D-15 3.70D-09 XBig12= 3.15D-04 4.28D-03.
     24 vectors produced by pass  4 Test12= 1.66D-15 3.70D-09 XBig12= 1.53D-06 2.30D-04.
     24 vectors produced by pass  5 Test12= 1.66D-15 3.70D-09 XBig12= 7.17D-09 1.78D-05.
     15 vectors produced by pass  6 Test12= 1.66D-15 3.70D-09 XBig12= 3.74D-11 1.26D-06.
      3 vectors produced by pass  7 Test12= 1.66D-15 3.70D-09 XBig12= 1.61D-13 9.80D-08.
      1 vectors produced by pass  8 Test12= 1.66D-15 3.70D-09 XBig12= 6.43D-16 6.23D-09.
 InvSVY:  IOpt=1 It=  1 EMax= 8.88D-16
 Solved reduced A of dimension   163 with    27 vectors.
 End of Minotr F.D. properties file   721 does not exist.
 End of Minotr F.D. properties file   722 does not exist.
 End of Minotr F.D. properties file   788 does not exist.
 MDV=    33554432.
 Form MO integral derivatives with frozen-active canonical formalism.
 Discarding MO integrals.
 Reordered first order wavefunction length =       401408
 In DefCFB: NBatch=  1 ICI= 16 ICA= 28 LFMax= 16
            Large arrays: LIAPS=     3469312 LIARS=     1241856 words.
 Semi-Direct transformation.
 ModeAB=           2 MOrb=            16 LenV=      33409174
 LASXX=       476428 LTotXX=      476428 LenRXX=      476428
 LTotAB=      517232 MaxLAS=      696960 LenRXY=      696960
 NonZer=      952856 LenScr=     2142720 LnRSAI=           0
 LnScr1=           0 LExtra=           0 Total=      3316108
 MaxDsk=          -1 SrtSym=           F ITran=            4
 JobTyp=0 Pass  1:  I=   1 to  16.
 (rs|ai) integrals will be sorted in core.
 Spin components of T(2) and E(2):
     alpha-alpha T2 =       0.2335872556D-01 E2=     -0.5544634226D-01
     alpha-beta  T2 =       0.1398122327D+00 E2=     -0.3329239699D+00
     beta-beta   T2 =       0.2335872556D-01 E2=     -0.5544634226D-01
 ANorm=    0.1540473748D+01
 E2 =    -0.4438166544D+00 EUMP2 =    -0.20760737451636D+03
          IDoAtm=11111111
          Differentiating once with respect to electric field.
                with respect to dipole field.
          Differentiating once with respect to nuclear coordinates.
          There are     1 degrees of freedom in the 1st order CPHF.  IDoFFX=0 NUNeed=     1.
 LinEq1:  Iter=  0 NonCon=     1 RMS=1.30D-02 Max=9.88D-02 NDo=     1
 LinEq1:  Iter=  1 NonCon=     1 RMS=4.42D-03 Max=3.08D-02 NDo=     1
 LinEq1:  Iter=  2 NonCon=     1 RMS=1.93D-03 Max=1.34D-02 NDo=     1
 LinEq1:  Iter=  3 NonCon=     1 RMS=8.30D-04 Max=6.82D-03 NDo=     1
 LinEq1:  Iter=  4 NonCon=     1 RMS=2.94D-04 Max=2.71D-03 NDo=     1
 LinEq1:  Iter=  5 NonCon=     1 RMS=9.42D-05 Max=9.34D-04 NDo=     1
 LinEq1:  Iter=  6 NonCon=     1 RMS=1.84D-05 Max=1.05D-04 NDo=     1
 LinEq1:  Iter=  7 NonCon=     1 RMS=7.11D-06 Max=5.78D-05 NDo=     1
 LinEq1:  Iter=  8 NonCon=     1 RMS=1.03D-06 Max=9.11D-06 NDo=     1
 LinEq1:  Iter=  9 NonCon=     1 RMS=1.81D-07 Max=1.53D-06 NDo=     1
 LinEq1:  Iter= 10 NonCon=     1 RMS=2.44D-08 Max=1.87D-07 NDo=     1
 LinEq1:  Iter= 11 NonCon=     1 RMS=5.24D-09 Max=5.49D-08 NDo=     1
 LinEq1:  Iter= 12 NonCon=     1 RMS=1.04D-09 Max=9.34D-09 NDo=     1
 LinEq1:  Iter= 13 NonCon=     1 RMS=1.53D-10 Max=1.15D-09 NDo=     1
 LinEq1:  Iter= 14 NonCon=     0 RMS=1.62D-11 Max=7.99D-11 NDo=     1
 Linear equations converged to 1.000D-10 1.000D-09 after    14 iterations.
 End of Minotr F.D. properties file   721 does not exist.
 End of Minotr F.D. properties file   722 does not exist.
 End of Minotr F.D. properties file   788 does not exist.
 Symmetrizing basis deriv contribution to polar:
 IMax=3 JMax=2 DiffMx= 0.00D+00
 G2DrvN: will do     9 centers at a time, making    1 passes.
 Calling FoFCou, ICntrl=  3107 FMM=F I1Cent=   0 AccDes= 0.00D+00.
 End of G2Drv F.D. properties file   721 does not exist.
 End of G2Drv F.D. properties file   722 does not exist.
 End of G2Drv F.D. properties file   788 does not exist.
 R2 and R3 integrals will be kept in memory, NReq=     1781090.
 DD1Dir will call FoFMem   1 times, MxPair=       272
 NAB=   136 NAA=     0 NBB=     0.
 Discarding MO integrals.

 **********************************************************************

            Population analysis using the SCF density.

 **********************************************************************

 Alpha  occ. eigenvalues --  -20.23480 -15.38588 -11.14335 -11.07421  -1.00264
 Alpha  occ. eigenvalues --   -0.97031  -0.78311  -0.44743  -0.44466  -0.42166
 Alpha  occ. eigenvalues --   -0.31819  -0.28053  -0.25154  -0.25047  -0.17205
 Alpha  occ. eigenvalues --   -0.14395
 Alpha virt. eigenvalues --    0.37377   0.39631   0.39665   0.43104   0.46696
 Alpha virt. eigenvalues --    0.47211   0.48882   0.74373   0.92672   0.93535
 Alpha virt. eigenvalues --    1.01838   1.02051   1.05500   1.19037   1.22160
 Alpha virt. eigenvalues --    1.25421   1.25510   1.32353   1.35545   1.37796
 Alpha virt. eigenvalues --    1.42380   1.46650   1.52360   1.55732   1.70741
 Alpha virt. eigenvalues --    1.75206   2.07697   2.24860
          Condensed to atoms (all electrons):
               1          2          3          4          5          6
     1  C    4.980478  -0.032802  -0.017200   0.407307   0.400188   0.400188
     2  C   -0.032802   5.422520   0.789112  -0.045894  -0.044994  -0.044994
     3  N   -0.017200   0.789112   6.822185   0.000021   0.000202   0.000202
     4  H    0.407307  -0.045894   0.000021   0.478978  -0.017403  -0.017403
     5  H    0.400188  -0.044994   0.000202  -0.017403   0.508435  -0.021090
     6  H    0.400188  -0.044994   0.000202  -0.017403  -0.021090   0.508435
     7  O    0.071160   0.006566  -0.000003  -0.021951  -0.017503  -0.017503
     8  H   -0.022486  -0.000889  -0.000002   0.001821   0.001319   0.001319
               7          8
     1  C    0.071160  -0.022486
     2  C    0.006566  -0.000889
     3  N   -0.000003  -0.000002
     4  H   -0.021951   0.001821
     5  H   -0.017503   0.001319
     6  H   -0.017503   0.001319
     7  O    8.796036   0.182527
     8  H    0.182527   0.603293
 Mulliken charges:
               1
     1  C   -0.186835
     2  C   -0.048625
     3  N   -0.594518
     4  H    0.214524
     5  H    0.190844
     6  H    0.190844
     7  O   -0.999329
     8  H    0.233096
 Sum of Mulliken charges =  -1.00000
 Mulliken charges with hydrogens summed into heavy atoms:
               1
     1  C    0.409377
     2  C   -0.048625
     3  N   -0.594518
     7  O   -0.766233
 APT charges:
               1
     1  C    1.365911
     2  C   -0.701649
     3  N   -0.454971
     4  H   -0.040131
     5  H   -0.073897
     6  H   -0.073897
     7  O   -1.003030
     8  H   -0.018337
 Sum of APT charges =  -1.00000
 APT charges with hydrogens summed into heavy atoms:
               1
     1  C    1.177986
     2  C   -0.701649
     3  N   -0.454971
     7  O   -1.021367
 Electronic spatial extent (au):  <R**2>=            578.9252
 Charge=             -1.0000 electrons
 Dipole moment (field-independent basis, Debye):
    X=             -1.8230    Y=              0.0000    Z=             -1.4732  Tot=              2.3439
 Quadrupole moment (field-independent basis, Debye-Ang):
   XX=            -71.6133   YY=            -26.3453   ZZ=            -25.0074
   XY=              0.0000   XZ=              4.0959   YZ=             -0.0000
 Traceless Quadrupole moment (field-independent basis, Debye-Ang):
   XX=            -30.6247   YY=             14.6434   ZZ=             15.9813
   XY=              0.0000   XZ=              4.0959   YZ=             -0.0000
 Octapole moment (field-independent basis, Debye-Ang**2):
  XXX=           -117.1693  YYY=              0.0000  ZZZ=              1.0056  XYY=            -16.0261
  XXY=              0.0000  XXZ=             -8.0244  XZZ=            -18.8987  YZZ=              0.0000
  YYZ=             -0.7774  XYZ=              0.0000
 Hexadecapole moment (field-independent basis, Debye-Ang**3):
 XXXX=          -1138.0820 YYYY=            -30.7970 ZZZZ=            -32.6257 XXXY=              0.0000
 XXXZ=             24.9207 YYYX=              0.0000 YYYZ=             -0.0000 ZZZX=              2.9159
 ZZZY=             -0.0000 XXYY=           -130.0448 XXZZ=           -124.4412 YYZZ=            -10.7788
 XXYZ=              0.0000 YYXZ=              0.8297 ZZXY=              0.0000
 N-N= 8.969223919240D+01 E-N=-6.739266130817D+02  KE= 2.068645709968D+02
  Exact polarizability:  78.962  -0.000  19.479   3.395   0.000  24.745
 Approx polarizability:  49.426  -0.000  15.487   0.828   0.000  20.230
 Calling FoFJK, ICntrl=  10100127 FMM=F ISym2X=0 I1Cent= 0 IOpClX= 0 NMat=1 NMatS=1 NMatT=0.
 -------------------------------------------------------------------
 Center     Atomic                   Forces (Hartrees/Bohr)
 Number     Number              X              Y              Z
 -------------------------------------------------------------------
      1        6           0.000026834   -0.000000000   -0.000029816
      2        6           0.000292075   -0.000000000   -0.000007333
      3        7          -0.000301586   -0.000000000    0.000004678
      4        1           0.000008999   -0.000000000    0.000011149
      5        1           0.000000876   -0.000016154    0.000007423
      6        1           0.000000876    0.000016154    0.000007423
      7        8          -0.000050132    0.000000000    0.000017019
      8        1           0.000022057    0.000000000   -0.000010544
 -------------------------------------------------------------------
 Cartesian Forces:  Max     0.000301586 RMS     0.000087127
 IRC-IRC-IRC-IRC-IRC-IRC-IRC-IRC-IRC-IRC-IRC-IRC-IRC-IRC-IRC-IRC-IRC-IRC
          ******** Start new reaction path calculation ********
 Supplied step size of   0.1000 bohr.
    Integration on MW PES will use step size of   0.3164 sqrt(amu)*bohr.
 Point Number:   0          Path Number:   1
 Calculating another point on the path.
 IRC-IRC-IRC-IRC-IRC-IRC-IRC-IRC-IRC-IRC-IRC-IRC-IRC-IRC-IRC-IRC-IRC-IRC
                          Input orientation:                          
 ---------------------------------------------------------------------
 Center     Atomic      Atomic             Coordinates (Angstroms)
 Number     Number       Type             X           Y           Z
 ---------------------------------------------------------------------
      1          6           0       -0.600574    0.000000    0.008974
      2          6           0        1.409436   -0.000000   -0.022308
      3          7           0        2.622243    0.000000   -0.028070
      4          1           0       -0.640100    0.000000    1.086443
      5          1           0       -0.635704    0.937599   -0.523670
      6          1           0       -0.635704   -0.937599   -0.523670
      7          8           0       -2.602299   -0.000000    0.087090
      8          1           0       -2.853459    0.000000   -0.872506
 ---------------------------------------------------------------------
                    Distance matrix (angstroms):
                    1          2          3          4          5
     1  C    0.000000
     2  C    2.010253   0.000000
     3  N    3.223030   1.212821   0.000000
     4  H    1.078194   2.330220   3.447465   0.000000
     5  H    1.078905   2.305007   3.426213   1.863217   0.000000
     6  H    1.078905   2.305007   3.426213   1.863217   1.875199
     7  O    2.003249   4.013227   5.225811   2.202030   2.262657
     8  H    2.419194   4.346851   5.540432   2.955747   2.432944
                    6          7          8
     6  H    0.000000
     7  O    2.262657   0.000000
     8  H    2.432944   0.991920   0.000000
 Symmetry turned off by external request.
 Stoichiometry    C2H4NO(1-)
 Framework group  CS[SG(C2H2NO),X(H2)]
 Deg. of freedom    12
 Full point group                 CS      NOp   2
 Rotational constants (GHZ):    115.0632664      2.0711857      2.0640101
 Standard basis: 6-31G (6D, 7F)
    44 basis functions,   104 primitive gaussians,    44 cartesian basis functions
    16 alpha electrons       16 beta electrons
       nuclear repulsion energy        89.6702838891 Hartrees.
 NAtoms=    8 NActive=    8 NUniq=    8 SFac= 1.00D+00 NAtFMM=   60 NAOKFM=F Big=F
 Integral buffers will be    131072 words long.
 Raffenetti 1 integral format.
 Two-electron integral symmetry is turned off.
 One-electron integrals computed using PRISM.
 NBasis=    44 RedAO= T EigKep=  4.68D-03  NBF=    44
 NBsUse=    44 1.00D-06 EigRej= -1.00D+00 NBFU=    44
 Initial guess from the checkpoint file:  "/localscratch/rjackson.10730419.0/Gau-17281.chk"
 B after Tr=    -1.041758    0.000000   -0.009740
         Rot=    1.000000    0.000000    0.000030    0.000000 Ang=   0.00 deg.
 ExpMin= 1.61D-01 ExpMax= 5.48D+03 ExpMxC= 8.25D+02 IAcc=1 IRadAn=         1 AccDes= 0.00D+00
 Harris functional with IExCor=  205 and IRadAn=       1 diagonalized for initial guess.
 HarFok:  IExCor=  205 AccDes= 0.00D+00 IRadAn=         1 IDoV= 1 UseB2=F ITyADJ=14
 ICtDFT=  3500011 ScaDFX=  1.000000  1.000000  1.000000  1.000000
 FoFCou: FMM=F IPFlag=           0 FMFlag=      100000 FMFlg1=           0
         NFxFlg=           0 DoJE=T BraDBF=F KetDBF=T FulRan=T
         wScrn=  0.000000 ICntrl=     500 IOpCl=  0 I1Cent=   200000004 NGrid=           0
         NMat0=    1 NMatS0=      1 NMatT0=    0 NMatD0=    1 NMtDS0=    0 NMtDT0=    0
 Symmetry not used in FoFCou.
 Keep R1 ints in memory in canonical form, NReq=1336245.
 Requested convergence on RMS density matrix=1.00D-08 within 128 cycles.
 Requested convergence on MAX density matrix=1.00D-06.
 Requested convergence on             energy=1.00D-06.
 No special actions if energy rises.
 SCF Done:  E(RHF) =  -207.164365409     A.U. after   12 cycles
            NFock= 12  Conv=0.61D-08     -V/T= 2.0014
 ExpMin= 1.61D-01 ExpMax= 5.48D+03 ExpMxC= 8.25D+02 IAcc=3 IRadAn=         5 AccDes= 0.00D+00
 HarFok:  IExCor=  205 AccDes= 0.00D+00 IRadAn=         5 IDoV=-2 UseB2=F ITyADJ=14
 ICtDFT= 12500011 ScaDFX=  1.000000  1.000000  1.000000  1.000000
 Range of M.O.s used for correlation:     5    44
 NBasis=    44 NAE=    16 NBE=    16 NFC=     4 NFV=     0
 NROrb=     40 NOA=    12 NOB=    12 NVA=    28 NVB=    28
 Fully direct method using O(ONN) memory.
 JobTyp=1 Pass  1:  I=   5 to  16 NPSUse=  1 ParTrn=F ParDer=F DoDerP=T.
 Spin components of T(2) and E(2):
     alpha-alpha T2 =       0.2334048503D-01 E2=     -0.5543374684D-01
     alpha-beta  T2 =       0.1400305683D+00 E2=     -0.3329822031D+00
     beta-beta   T2 =       0.2334048503D-01 E2=     -0.5543374684D-01
 ANorm=    0.1089362905D+01
 E2 =    -0.4438496968D+00 EUMP2 =    -0.20760821510539D+03
          IDoAtm=11111111
          Differentiating once with respect to electric field.
                with respect to dipole field.
          Differentiating once with respect to nuclear coordinates.
 Keep R1 ints in memory in canonical form, NReq=1320565.
          There are     1 degrees of freedom in the 1st order CPHF.  IDoFFX=0 NUNeed=     1.
 LinEq1:  Iter=  0 NonCon=     1 RMS=1.29D-02 Max=8.52D-02 NDo=     1
 AX will form     1 AO Fock derivatives at one time.
 LinEq1:  Iter=  1 NonCon=     1 RMS=4.48D-03 Max=3.03D-02 NDo=     1
 LinEq1:  Iter=  2 NonCon=     1 RMS=1.93D-03 Max=1.34D-02 NDo=     1
 LinEq1:  Iter=  3 NonCon=     1 RMS=8.45D-04 Max=6.94D-03 NDo=     1
 LinEq1:  Iter=  4 NonCon=     1 RMS=3.02D-04 Max=2.62D-03 NDo=     1
 LinEq1:  Iter=  5 NonCon=     1 RMS=1.01D-04 Max=1.05D-03 NDo=     1
 LinEq1:  Iter=  6 NonCon=     1 RMS=2.02D-05 Max=1.07D-04 NDo=     1
 LinEq1:  Iter=  7 NonCon=     1 RMS=7.33D-06 Max=5.77D-05 NDo=     1
 LinEq1:  Iter=  8 NonCon=     1 RMS=9.54D-07 Max=6.34D-06 NDo=     1
 LinEq1:  Iter=  9 NonCon=     1 RMS=1.65D-07 Max=1.33D-06 NDo=     1
 LinEq1:  Iter= 10 NonCon=     1 RMS=2.73D-08 Max=2.39D-07 NDo=     1
 LinEq1:  Iter= 11 NonCon=     1 RMS=5.71D-09 Max=5.08D-08 NDo=     1
 LinEq1:  Iter= 12 NonCon=     1 RMS=1.04D-09 Max=1.09D-08 NDo=     1
 LinEq1:  Iter= 13 NonCon=     1 RMS=1.49D-10 Max=1.22D-09 NDo=     1
 LinEq1:  Iter= 14 NonCon=     0 RMS=1.60D-11 Max=7.39D-11 NDo=     1
 Linear equations converged to 1.000D-10 1.000D-09 after    14 iterations.
 End of Minotr F.D. properties file   721 does not exist.
 End of Minotr F.D. properties file   722 does not exist.
 End of Minotr F.D. properties file   788 does not exist.
 Symmetrizing basis deriv contribution to polar:
 IMax=3 JMax=2 DiffMx= 0.00D+00
 Calling FoFJK, ICntrl=  10002127 FMM=F ISym2X=0 I1Cent= 0 IOpClX= 0 NMat=1 NMatS=1 NMatT=0.
 -------------------------------------------------------------------
 Center     Atomic                   Forces (Hartrees/Bohr)
 Number     Number              X              Y              Z
 -------------------------------------------------------------------
      1        6          -0.016366450   -0.000000000   -0.000006785
      2        6           0.004637308    0.000000000   -0.000149369
      3        7           0.004501494   -0.000000000   -0.000000181
      4        1           0.000331308    0.000000000   -0.000640179
      5        1           0.000429359   -0.000730298    0.000399689
      6        1           0.000429359    0.000730298    0.000399689
      7        8           0.005664598    0.000000000   -0.000005613
      8        1           0.000373025   -0.000000000    0.000002750
 -------------------------------------------------------------------
 Cartesian Forces:  Max     0.016366450 RMS     0.003786778
 IRC-IRC-IRC-IRC-IRC-IRC-IRC-IRC-IRC-IRC-IRC-IRC-IRC-IRC-IRC-IRC-IRC-IRC
 Pt  1 Step number   1 out of a maximum of  20
 Modified Bulirsch-Stoer Extrapolation Cycles:
    EPS =    0.000010000000000
 Maximum DWI energy   std dev =  0.000002626 at pt     2
 Maximum DWI gradient std dev =  0.143495417 at pt     2
 CORRECTOR INTEGRATION CONVERGENCE:
   Recorrection delta-x convergence threshold:    0.010000
   Delta-x Convergence Met
 Point Number:   1          Path Number:   1
   CHANGE IN THE REACTION COORDINATE =    0.31629
   NET REACTION COORDINATE UP TO THIS POINT =    0.31629
  # OF POINTS ALONG THE PATH =   1
  # OF STEPS =   1

 Calculating another point on the path.
 IRC-IRC-IRC-IRC-IRC-IRC-IRC-IRC-IRC-IRC-IRC-IRC-IRC-IRC-IRC-IRC-IRC-IRC
                          Input orientation:                          
 ---------------------------------------------------------------------
 Center     Atomic      Atomic             Coordinates (Angstroms)
 Number     Number       Type             X           Y           Z
 ---------------------------------------------------------------------
      1          6           0       -0.643548   -0.000000    0.009498
      2          6           0        1.421363    0.000000   -0.022772
      3          7           0        2.632776   -0.000000   -0.028068
      4          1           0       -0.631862    0.000000    1.088473
      5          1           0       -0.623704    0.938630   -0.524972
      6          1           0       -0.623704   -0.938630   -0.524972
      7          8           0       -2.590972    0.000000    0.087042
      8          1           0       -2.841016   -0.000000   -0.871950
 ---------------------------------------------------------------------
                    Distance matrix (angstroms):
                    1          2          3          4          5
     1  C    0.000000
     2  C    2.065163   0.000000
     3  N    3.276540   1.211425   0.000000
     4  H    1.079039   2.334652   3.450293   0.000000
     5  H    1.080314   2.305543   3.425289   1.866627   0.000000
     6  H    1.080314   2.305543   3.425289   1.866627   1.877260
     7  O    1.948967   4.013838   5.225016   2.200222   2.264007
     8  H    2.367660   4.346145   5.538460   2.953578   2.432672
                    6          7          8
     6  H    0.000000
     7  O    2.264007   0.000000
     8  H    2.432672   0.991053   0.000000
 Symmetry turned off by external request.
 Stoichiometry    C2H4NO(1-)
 Framework group  CS[SG(C2H2NO),X(H2)]
 Deg. of freedom    12
 Full point group                 CS      NOp   2
 Rotational constants (GHZ):    114.8028337      2.0646468      2.0574981
 Standard basis: 6-31G (6D, 7F)
    44 basis functions,   104 primitive gaussians,    44 cartesian basis functions
    16 alpha electrons       16 beta electrons
       nuclear repulsion energy        89.6971910733 Hartrees.
 NAtoms=    8 NActive=    8 NUniq=    8 SFac= 1.00D+00 NAtFMM=   60 NAOKFM=F Big=F
 Integral buffers will be    131072 words long.
 Raffenetti 1 integral format.
 Two-electron integral symmetry is turned off.
 One-electron integrals computed using PRISM.
 NBasis=    44 RedAO= T EigKep=  4.87D-03  NBF=    44
 NBsUse=    44 1.00D-06 EigRej= -1.00D+00 NBFU=    44
 Initial guess from the checkpoint file:  "/localscratch/rjackson.10730419.0/Gau-17281.chk"
 B after Tr=     0.001386   -0.000000    0.000005
         Rot=    1.000000    0.000000    0.000024    0.000000 Ang=   0.00 deg.
 ExpMin= 1.61D-01 ExpMax= 5.48D+03 ExpMxC= 8.25D+02 IAcc=1 IRadAn=         1 AccDes= 0.00D+00
 Harris functional with IExCor=  205 and IRadAn=       1 diagonalized for initial guess.
 HarFok:  IExCor=  205 AccDes= 0.00D+00 IRadAn=         1 IDoV= 1 UseB2=F ITyADJ=14
 ICtDFT=  3500011 ScaDFX=  1.000000  1.000000  1.000000  1.000000
 FoFCou: FMM=F IPFlag=           0 FMFlag=      100000 FMFlg1=           0
         NFxFlg=           0 DoJE=T BraDBF=F KetDBF=T FulRan=T
         wScrn=  0.000000 ICntrl=     500 IOpCl=  0 I1Cent=   200000004 NGrid=           0
         NMat0=    1 NMatS0=      1 NMatT0=    0 NMatD0=    1 NMtDS0=    0 NMtDT0=    0
 Symmetry not used in FoFCou.
 Keep R1 ints in memory in canonical form, NReq=1336262.
 Requested convergence on RMS density matrix=1.00D-08 within 128 cycles.
 Requested convergence on MAX density matrix=1.00D-06.
 Requested convergence on             energy=1.00D-06.
 No special actions if energy rises.
 SCF Done:  E(RHF) =  -207.167045396     A.U. after   12 cycles
            NFock= 12  Conv=0.93D-08     -V/T= 2.0013
 ExpMin= 1.61D-01 ExpMax= 5.48D+03 ExpMxC= 8.25D+02 IAcc=3 IRadAn=         5 AccDes= 0.00D+00
 HarFok:  IExCor=  205 AccDes= 0.00D+00 IRadAn=         5 IDoV=-2 UseB2=F ITyADJ=14
 ICtDFT= 12500011 ScaDFX=  1.000000  1.000000  1.000000  1.000000
 Range of M.O.s used for correlation:     5    44
 NBasis=    44 NAE=    16 NBE=    16 NFC=     4 NFV=     0
 NROrb=     40 NOA=    12 NOB=    12 NVA=    28 NVB=    28
 Fully direct method using O(ONN) memory.
 JobTyp=1 Pass  1:  I=   5 to  16 NPSUse=  1 ParTrn=F ParDer=F DoDerP=T.
 Spin components of T(2) and E(2):
     alpha-alpha T2 =       0.2327197210D-01 E2=     -0.5536295947D-01
     alpha-beta  T2 =       0.1399559908D+00 E2=     -0.3328778900D+00
     beta-beta   T2 =       0.2327197210D-01 E2=     -0.5536295947D-01
 ANorm=    0.1089265778D+01
 E2 =    -0.4436038089D+00 EUMP2 =    -0.20761064920527D+03
          IDoAtm=11111111
          Differentiating once with respect to electric field.
                with respect to dipole field.
          Differentiating once with respect to nuclear coordinates.
 Keep R1 ints in memory in canonical form, NReq=1320626.
          There are     1 degrees of freedom in the 1st order CPHF.  IDoFFX=0 NUNeed=     1.
 LinEq1:  Iter=  0 NonCon=     1 RMS=1.27D-02 Max=1.06D-01 NDo=     1
 AX will form     1 AO Fock derivatives at one time.
 LinEq1:  Iter=  1 NonCon=     1 RMS=4.45D-03 Max=2.93D-02 NDo=     1
 LinEq1:  Iter=  2 NonCon=     1 RMS=1.89D-03 Max=1.32D-02 NDo=     1
 LinEq1:  Iter=  3 NonCon=     1 RMS=8.30D-04 Max=6.56D-03 NDo=     1
 LinEq1:  Iter=  4 NonCon=     1 RMS=2.99D-04 Max=2.71D-03 NDo=     1
 LinEq1:  Iter=  5 NonCon=     1 RMS=1.04D-04 Max=1.11D-03 NDo=     1
 LinEq1:  Iter=  6 NonCon=     1 RMS=2.10D-05 Max=1.05D-04 NDo=     1
 LinEq1:  Iter=  7 NonCon=     1 RMS=7.21D-06 Max=5.44D-05 NDo=     1
 LinEq1:  Iter=  8 NonCon=     1 RMS=8.85D-07 Max=4.93D-06 NDo=     1
 LinEq1:  Iter=  9 NonCon=     1 RMS=1.48D-07 Max=1.53D-06 NDo=     1
 LinEq1:  Iter= 10 NonCon=     1 RMS=2.83D-08 Max=2.36D-07 NDo=     1
 LinEq1:  Iter= 11 NonCon=     1 RMS=5.12D-09 Max=3.81D-08 NDo=     1
 LinEq1:  Iter= 12 NonCon=     1 RMS=8.59D-10 Max=8.75D-09 NDo=     1
 LinEq1:  Iter= 13 NonCon=     1 RMS=1.31D-10 Max=1.25D-09 NDo=     1
 LinEq1:  Iter= 14 NonCon=     0 RMS=1.50D-11 Max=7.44D-11 NDo=     1
 Linear equations converged to 1.000D-10 1.000D-09 after    14 iterations.
 End of Minotr F.D. properties file   721 does not exist.
 End of Minotr F.D. properties file   722 does not exist.
 End of Minotr F.D. properties file   788 does not exist.
 Symmetrizing basis deriv contribution to polar:
 IMax=3 JMax=2 DiffMx= 0.00D+00
 Calling FoFJK, ICntrl=  10002127 FMM=F ISym2X=0 I1Cent= 0 IOpClX= 0 NMat=1 NMatS=1 NMatT=0.
 -------------------------------------------------------------------
 Center     Atomic                   Forces (Hartrees/Bohr)
 Number     Number              X              Y              Z
 -------------------------------------------------------------------
      1        6          -0.030934561   -0.000000000    0.000216679
      2        6           0.008075146    0.000000000   -0.000310831
      3        7           0.009183768   -0.000000000   -0.000007538
      4        1           0.000522802    0.000000000   -0.001468573
      5        1           0.000687800   -0.001506940    0.000847997
      6        1           0.000687800    0.001506940    0.000847997
      7        8           0.011200095   -0.000000000   -0.000172685
      8        1           0.000577150    0.000000000    0.000046956
 -------------------------------------------------------------------
 Cartesian Forces:  Max     0.030934561 RMS     0.007193178
 IRC-IRC-IRC-IRC-IRC-IRC-IRC-IRC-IRC-IRC-IRC-IRC-IRC-IRC-IRC-IRC-IRC-IRC
 Pt  2 Step number   1 out of a maximum of  20
 Modified Bulirsch-Stoer Extrapolation Cycles:
    EPS =    0.000010000000000
 Maximum DWI energy   std dev =  0.000006962 at pt    30
 Maximum DWI gradient std dev =  0.103765035 at pt    27
 CORRECTOR INTEGRATION CONVERGENCE:
   Recorrection delta-x convergence threshold:    0.010000
   Delta-x Convergence Met
 Point Number:   2          Path Number:   1
   CHANGE IN THE REACTION COORDINATE =    0.31620
   NET REACTION COORDINATE UP TO THIS POINT =    0.63249
  # OF POINTS ALONG THE PATH =   2
  # OF STEPS =   1

 Calculating another point on the path.
 IRC-IRC-IRC-IRC-IRC-IRC-IRC-IRC-IRC-IRC-IRC-IRC-IRC-IRC-IRC-IRC-IRC-IRC
                          Input orientation:                          
 ---------------------------------------------------------------------
 Center     Atomic      Atomic             Coordinates (Angstroms)
 Number     Number       Type             X           Y           Z
 ---------------------------------------------------------------------
      1          6           0       -0.686512    0.000000    0.010127
      2          6           0        1.432997    0.000000   -0.023237
      3          7           0        2.643486   -0.000000   -0.028079
      4          1           0       -0.624299    0.000000    1.087661
      5          1           0       -0.613107    0.936866   -0.524213
      6          1           0       -0.613107   -0.936866   -0.524213
      7          8           0       -2.579113    0.000000    0.086810
      8          1           0       -2.830728   -0.000000   -0.870853
 ---------------------------------------------------------------------
                    Distance matrix (angstroms):
                    1          2          3          4          5
     1  C    0.000000
     2  C    2.119772   0.000000
     3  N    3.330218   1.210499   0.000000
     4  H    1.079329   2.338068   3.453013   0.000000
     5  H    1.081030   2.305481   3.424802   1.864399   0.000000
     6  H    1.081030   2.305481   3.424802   1.864399   1.873733
     7  O    1.894154   4.013619   5.223863   2.196133   2.261912
     8  H    2.318143   4.347161   5.538708   2.950273   2.432225
                    6          7          8
     6  H    0.000000
     7  O    2.261912   0.000000
     8  H    2.432225   0.990166   0.000000
 Symmetry turned off by external request.
 Stoichiometry    C2H4NO(1-)
 Framework group  CS[SG(C2H2NO),X(H2)]
 Deg. of freedom    12
 Full point group                 CS      NOp   2
 Rotational constants (GHZ):    115.1283476      2.0579744      2.0508644
 Standard basis: 6-31G (6D, 7F)
    44 basis functions,   104 primitive gaussians,    44 cartesian basis functions
    16 alpha electrons       16 beta electrons
       nuclear repulsion energy        89.7766632810 Hartrees.
 NAtoms=    8 NActive=    8 NUniq=    8 SFac= 1.00D+00 NAtFMM=   60 NAOKFM=F Big=F
 Integral buffers will be    131072 words long.
 Raffenetti 1 integral format.
 Two-electron integral symmetry is turned off.
 One-electron integrals computed using PRISM.
 NBasis=    44 RedAO= T EigKep=  5.06D-03  NBF=    44
 NBsUse=    44 1.00D-06 EigRej= -1.00D+00 NBFU=    44
 Initial guess from the checkpoint file:  "/localscratch/rjackson.10730419.0/Gau-17281.chk"
 B after Tr=     0.001274    0.000000    0.000057
         Rot=    1.000000   -0.000000    0.000016    0.000000 Ang=   0.00 deg.
 ExpMin= 1.61D-01 ExpMax= 5.48D+03 ExpMxC= 8.25D+02 IAcc=1 IRadAn=         1 AccDes= 0.00D+00
 Harris functional with IExCor=  205 and IRadAn=       1 diagonalized for initial guess.
 HarFok:  IExCor=  205 AccDes= 0.00D+00 IRadAn=         1 IDoV= 1 UseB2=F ITyADJ=14
 ICtDFT=  3500011 ScaDFX=  1.000000  1.000000  1.000000  1.000000
 FoFCou: FMM=F IPFlag=           0 FMFlag=      100000 FMFlg1=           0
         NFxFlg=           0 DoJE=T BraDBF=F KetDBF=T FulRan=T
         wScrn=  0.000000 ICntrl=     500 IOpCl=  0 I1Cent=   200000004 NGrid=           0
         NMat0=    1 NMatS0=      1 NMatT0=    0 NMatD0=    1 NMtDS0=    0 NMtDT0=    0
 Symmetry not used in FoFCou.
 Keep R1 ints in memory in canonical form, NReq=1336247.
 Requested convergence on RMS density matrix=1.00D-08 within 128 cycles.
 Requested convergence on MAX density matrix=1.00D-06.
 Requested convergence on             energy=1.00D-06.
 No special actions if energy rises.
 SCF Done:  E(RHF) =  -207.171466177     A.U. after   12 cycles
            NFock= 12  Conv=0.77D-08     -V/T= 2.0013
 ExpMin= 1.61D-01 ExpMax= 5.48D+03 ExpMxC= 8.25D+02 IAcc=3 IRadAn=         5 AccDes= 0.00D+00
 HarFok:  IExCor=  205 AccDes= 0.00D+00 IRadAn=         5 IDoV=-2 UseB2=F ITyADJ=14
 ICtDFT= 12500011 ScaDFX=  1.000000  1.000000  1.000000  1.000000
 Range of M.O.s used for correlation:     5    44
 NBasis=    44 NAE=    16 NBE=    16 NFC=     4 NFV=     0
 NROrb=     40 NOA=    12 NOB=    12 NVA=    28 NVB=    28
 Fully direct method using O(ONN) memory.
 JobTyp=1 Pass  1:  I=   5 to  16 NPSUse=  1 ParTrn=F ParDer=F DoDerP=T.
 Spin components of T(2) and E(2):
     alpha-alpha T2 =       0.2316003187D-01 E2=     -0.5523609243D-01
     alpha-beta  T2 =       0.1395429330D+00 E2=     -0.3325379074D+00
     beta-beta   T2 =       0.2316003187D-01 E2=     -0.5523609243D-01
 ANorm=    0.1088973368D+01
 E2 =    -0.4430100923D+00 EUMP2 =    -0.20761447626905D+03
          IDoAtm=11111111
          Differentiating once with respect to electric field.
                with respect to dipole field.
          Differentiating once with respect to nuclear coordinates.
 Keep R1 ints in memory in canonical form, NReq=1320588.
          There are     1 degrees of freedom in the 1st order CPHF.  IDoFFX=0 NUNeed=     1.
 LinEq1:  Iter=  0 NonCon=     1 RMS=1.23D-02 Max=9.31D-02 NDo=     1
 AX will form     1 AO Fock derivatives at one time.
 LinEq1:  Iter=  1 NonCon=     1 RMS=4.34D-03 Max=2.53D-02 NDo=     1
 LinEq1:  Iter=  2 NonCon=     1 RMS=1.82D-03 Max=1.27D-02 NDo=     1
 LinEq1:  Iter=  3 NonCon=     1 RMS=7.88D-04 Max=4.84D-03 NDo=     1
 LinEq1:  Iter=  4 NonCon=     1 RMS=2.87D-04 Max=2.53D-03 NDo=     1
 LinEq1:  Iter=  5 NonCon=     1 RMS=1.02D-04 Max=7.86D-04 NDo=     1
 LinEq1:  Iter=  6 NonCon=     1 RMS=2.09D-05 Max=9.89D-05 NDo=     1
 LinEq1:  Iter=  7 NonCon=     1 RMS=6.76D-06 Max=5.61D-05 NDo=     1
 LinEq1:  Iter=  8 NonCon=     1 RMS=8.24D-07 Max=4.66D-06 NDo=     1
 LinEq1:  Iter=  9 NonCon=     1 RMS=1.41D-07 Max=1.36D-06 NDo=     1
 LinEq1:  Iter= 10 NonCon=     1 RMS=2.80D-08 Max=2.02D-07 NDo=     1
 LinEq1:  Iter= 11 NonCon=     1 RMS=4.22D-09 Max=2.17D-08 NDo=     1
 LinEq1:  Iter= 12 NonCon=     1 RMS=5.88D-10 Max=3.93D-09 NDo=     1
 LinEq1:  Iter= 13 NonCon=     0 RMS=9.50D-11 Max=8.24D-10 NDo=     1
 Linear equations converged to 1.000D-10 1.000D-09 after    13 iterations.
 End of Minotr F.D. properties file   721 does not exist.
 End of Minotr F.D. properties file   722 does not exist.
 End of Minotr F.D. properties file   788 does not exist.
 Symmetrizing basis deriv contribution to polar:
 IMax=3 JMax=2 DiffMx= 0.00D+00
 Calling FoFJK, ICntrl=  10002127 FMM=F ISym2X=0 I1Cent= 0 IOpClX= 0 NMat=1 NMatS=1 NMatT=0.
 -------------------------------------------------------------------
 Center     Atomic                   Forces (Hartrees/Bohr)
 Number     Number              X              Y              Z
 -------------------------------------------------------------------
      1        6          -0.042862956    0.000000000    0.000568207
      2        6           0.011195669    0.000000000   -0.000468357
      3        7           0.012801594   -0.000000000   -0.000013345
      4        1           0.000573147   -0.000000000   -0.001689018
      5        1           0.000772629   -0.001682231    0.000966693
      6        1           0.000772629    0.001682231    0.000966693
      7        8           0.016099887   -0.000000000   -0.000459723
      8        1           0.000647401    0.000000000    0.000128849
 -------------------------------------------------------------------
 Cartesian Forces:  Max     0.042862956 RMS     0.009997409
 IRC-IRC-IRC-IRC-IRC-IRC-IRC-IRC-IRC-IRC-IRC-IRC-IRC-IRC-IRC-IRC-IRC-IRC
 Pt  3 Step number   1 out of a maximum of  20
 Modified Bulirsch-Stoer Extrapolation Cycles:
    EPS =    0.000010000000000
 Maximum DWI energy   std dev =  0.000009391 at pt    37
 Maximum DWI gradient std dev =  0.071706550 at pt    37
 CORRECTOR INTEGRATION CONVERGENCE:
   Recorrection delta-x convergence threshold:    0.010000
   Delta-x Convergence Met
 Point Number:   3          Path Number:   1
   CHANGE IN THE REACTION COORDINATE =    0.31622
   NET REACTION COORDINATE UP TO THIS POINT =    0.94871
  # OF POINTS ALONG THE PATH =   3
  # OF STEPS =   1

 Calculating another point on the path.
 IRC-IRC-IRC-IRC-IRC-IRC-IRC-IRC-IRC-IRC-IRC-IRC-IRC-IRC-IRC-IRC-IRC-IRC
                          Input orientation:                          
 ---------------------------------------------------------------------
 Center     Atomic      Atomic             Coordinates (Angstroms)
 Number     Number       Type             X           Y           Z
 ---------------------------------------------------------------------
      1          6           0       -0.729416    0.000000    0.010872
      2          6           0        1.444504    0.000000   -0.023723
      3          7           0        2.654329   -0.000000   -0.028091
      4          1           0       -0.618089    0.000000    1.084883
      5          1           0       -0.604283    0.933229   -0.522031
      6          1           0       -0.604283   -0.933229   -0.522031
      7          8           0       -2.566864    0.000000    0.086417
      8          1           0       -2.822729   -0.000000   -0.869152
 ---------------------------------------------------------------------
                    Distance matrix (angstroms):
                    1          2          3          4          5
     1  C    0.000000
     2  C    2.174195   0.000000
     3  N    3.383970   1.209833   0.000000
     4  H    1.079766   2.341644   3.456506   0.000000
     5  H    1.081925   2.305808   3.425411   1.858301   0.000000
     6  H    1.081925   2.305808   3.425411   1.858301   1.866458
     7  O    1.839000   4.012880   5.222449   2.189671   2.256735
     8  H    2.270771   4.350175   5.541259   2.945961   2.431648
                    6          7          8
     6  H    0.000000
     7  O    2.256735   0.000000
     8  H    2.431648   0.989232   0.000000
 Symmetry turned off by external request.
 Stoichiometry    C2H4NO(1-)
 Framework group  CS[SG(C2H2NO),X(H2)]
 Deg. of freedom    12
 Full point group                 CS      NOp   2
 Rotational constants (GHZ):    115.8705172      2.0510096      2.0439533
 Standard basis: 6-31G (6D, 7F)
    44 basis functions,   104 primitive gaussians,    44 cartesian basis functions
    16 alpha electrons       16 beta electrons
       nuclear repulsion energy        89.9000927800 Hartrees.
 NAtoms=    8 NActive=    8 NUniq=    8 SFac= 1.00D+00 NAtFMM=   60 NAOKFM=F Big=F
 Integral buffers will be    131072 words long.
 Raffenetti 1 integral format.
 Two-electron integral symmetry is turned off.
 One-electron integrals computed using PRISM.
 NBasis=    44 RedAO= T EigKep=  5.26D-03  NBF=    44
 NBsUse=    44 1.00D-06 EigRej= -1.00D+00 NBFU=    44
 Initial guess from the checkpoint file:  "/localscratch/rjackson.10730419.0/Gau-17281.chk"
 B after Tr=     0.001058   -0.000000    0.000101
         Rot=    1.000000   -0.000000    0.000008    0.000000 Ang=   0.00 deg.
 ExpMin= 1.61D-01 ExpMax= 5.48D+03 ExpMxC= 8.25D+02 IAcc=1 IRadAn=         1 AccDes= 0.00D+00
 Harris functional with IExCor=  205 and IRadAn=       1 diagonalized for initial guess.
 HarFok:  IExCor=  205 AccDes= 0.00D+00 IRadAn=         1 IDoV= 1 UseB2=F ITyADJ=14
 ICtDFT=  3500011 ScaDFX=  1.000000  1.000000  1.000000  1.000000
 FoFCou: FMM=F IPFlag=           0 FMFlag=      100000 FMFlg1=           0
         NFxFlg=           0 DoJE=T BraDBF=F KetDBF=T FulRan=T
         wScrn=  0.000000 ICntrl=     500 IOpCl=  0 I1Cent=   200000004 NGrid=           0
         NMat0=    1 NMatS0=      1 NMatT0=    0 NMatD0=    1 NMtDS0=    0 NMtDT0=    0
 Symmetry not used in FoFCou.
 Keep R1 ints in memory in canonical form, NReq=1336245.
 Requested convergence on RMS density matrix=1.00D-08 within 128 cycles.
 Requested convergence on MAX density matrix=1.00D-06.
 Requested convergence on             energy=1.00D-06.
 No special actions if energy rises.
 SCF Done:  E(RHF) =  -207.177341543     A.U. after   12 cycles
            NFock= 12  Conv=0.64D-08     -V/T= 2.0012
 ExpMin= 1.61D-01 ExpMax= 5.48D+03 ExpMxC= 8.25D+02 IAcc=3 IRadAn=         5 AccDes= 0.00D+00
 HarFok:  IExCor=  205 AccDes= 0.00D+00 IRadAn=         5 IDoV=-2 UseB2=F ITyADJ=14
 ICtDFT= 12500011 ScaDFX=  1.000000  1.000000  1.000000  1.000000
 Range of M.O.s used for correlation:     5    44
 NBasis=    44 NAE=    16 NBE=    16 NFC=     4 NFV=     0
 NROrb=     40 NOA=    12 NOB=    12 NVA=    28 NVB=    28
 Fully direct method using O(ONN) memory.
 JobTyp=1 Pass  1:  I=   5 to  16 NPSUse=  1 ParTrn=F ParDer=F DoDerP=T.
 Spin components of T(2) and E(2):
     alpha-alpha T2 =       0.2300700606D-01 E2=     -0.5505556561D-01
     alpha-beta  T2 =       0.1387985884D+00 E2=     -0.3319458409D+00
     beta-beta   T2 =       0.2300700606D-01 E2=     -0.5505556561D-01
 ANorm=    0.1088490974D+01
 E2 =    -0.4420569721D+00 EUMP2 =    -0.20761939851524D+03
          IDoAtm=11111111
          Differentiating once with respect to electric field.
                with respect to dipole field.
          Differentiating once with respect to nuclear coordinates.
 Keep R1 ints in memory in canonical form, NReq=1320502.
          There are     1 degrees of freedom in the 1st order CPHF.  IDoFFX=0 NUNeed=     1.
 LinEq1:  Iter=  0 NonCon=     1 RMS=1.18D-02 Max=8.78D-02 NDo=     1
 AX will form     1 AO Fock derivatives at one time.
 LinEq1:  Iter=  1 NonCon=     1 RMS=4.16D-03 Max=2.70D-02 NDo=     1
 LinEq1:  Iter=  2 NonCon=     1 RMS=1.73D-03 Max=1.21D-02 NDo=     1
 LinEq1:  Iter=  3 NonCon=     1 RMS=7.22D-04 Max=4.61D-03 NDo=     1
 LinEq1:  Iter=  4 NonCon=     1 RMS=2.67D-04 Max=2.06D-03 NDo=     1
 LinEq1:  Iter=  5 NonCon=     1 RMS=9.51D-05 Max=8.91D-04 NDo=     1
 LinEq1:  Iter=  6 NonCon=     1 RMS=2.00D-05 Max=9.76D-05 NDo=     1
 LinEq1:  Iter=  7 NonCon=     1 RMS=6.10D-06 Max=5.36D-05 NDo=     1
 LinEq1:  Iter=  8 NonCon=     1 RMS=7.66D-07 Max=5.28D-06 NDo=     1
 LinEq1:  Iter=  9 NonCon=     1 RMS=1.44D-07 Max=1.43D-06 NDo=     1
 LinEq1:  Iter= 10 NonCon=     1 RMS=2.70D-08 Max=1.84D-07 NDo=     1
 LinEq1:  Iter= 11 NonCon=     1 RMS=3.79D-09 Max=2.73D-08 NDo=     1
 LinEq1:  Iter= 12 NonCon=     1 RMS=5.46D-10 Max=4.22D-09 NDo=     1
 LinEq1:  Iter= 13 NonCon=     0 RMS=9.11D-11 Max=5.99D-10 NDo=     1
 Linear equations converged to 1.000D-10 1.000D-09 after    13 iterations.
 End of Minotr F.D. properties file   721 does not exist.
 End of Minotr F.D. properties file   722 does not exist.
 End of Minotr F.D. properties file   788 does not exist.
 Symmetrizing basis deriv contribution to polar:
 IMax=3 JMax=2 DiffMx= 0.00D+00
 Calling FoFJK, ICntrl=  10002127 FMM=F ISym2X=0 I1Cent= 0 IOpClX= 0 NMat=1 NMatS=1 NMatT=0.
 -------------------------------------------------------------------
 Center     Atomic                   Forces (Hartrees/Bohr)
 Number     Number              X              Y              Z
 -------------------------------------------------------------------
      1        6          -0.051631648   -0.000000000    0.000923122
      2        6           0.013495708   -0.000000000   -0.000608524
      3        7           0.015685423    0.000000000   -0.000017967
      4        1           0.000447442    0.000000000   -0.001801636
      5        1           0.000648160   -0.001773774    0.001051950
      6        1           0.000648160    0.001773774    0.001051950
      7        8           0.020114457   -0.000000000   -0.000870256
      8        1           0.000592297    0.000000000    0.000271360
 -------------------------------------------------------------------
 Cartesian Forces:  Max     0.051631648 RMS     0.012099900
 IRC-IRC-IRC-IRC-IRC-IRC-IRC-IRC-IRC-IRC-IRC-IRC-IRC-IRC-IRC-IRC-IRC-IRC
 Pt  4 Step number   1 out of a maximum of  20
 Modified Bulirsch-Stoer Extrapolation Cycles:
    EPS =    0.000010000000000
 Maximum DWI energy   std dev =  0.000014294 at pt    73
 Maximum DWI gradient std dev =  0.054386782 at pt    28
 CORRECTOR INTEGRATION CONVERGENCE:
   Recorrection delta-x convergence threshold:    0.010000
   Delta-x Convergence Met
 Point Number:   4          Path Number:   1
   CHANGE IN THE REACTION COORDINATE =    0.31623
   NET REACTION COORDINATE UP TO THIS POINT =    1.26493
  # OF POINTS ALONG THE PATH =   4
  # OF STEPS =   1

 Calculating another point on the path.
 IRC-IRC-IRC-IRC-IRC-IRC-IRC-IRC-IRC-IRC-IRC-IRC-IRC-IRC-IRC-IRC-IRC-IRC
                          Input orientation:                          
 ---------------------------------------------------------------------
 Center     Atomic      Atomic             Coordinates (Angstroms)
 Number     Number       Type             X           Y           Z
 ---------------------------------------------------------------------
      1          6           0       -0.772201    0.000000    0.011755
      2          6           0        1.455927    0.000000   -0.024244
      3          7           0        2.665392   -0.000000   -0.028104
      4          1           0       -0.614235    0.000000    1.080494
      5          1           0       -0.598250    0.928054   -0.518602
      6          1           0       -0.598250   -0.928054   -0.518602
      7          8           0       -2.554219    0.000000    0.085851
      8          1           0       -2.817036   -0.000000   -0.866732
 ---------------------------------------------------------------------
                    Distance matrix (angstroms):
                    1          2          3          4          5
     1  C    0.000000
     2  C    2.228419   0.000000
     3  N    3.437824   1.209471   0.000000
     4  H    1.080350   2.346490   3.461927   0.000000
     5  H    1.082969   2.307664   3.428298   1.848958   0.000000
     6  H    1.082969   2.307664   3.428298   1.848958   1.856108
     7  O    1.783558   4.011657   5.220855   2.180104   2.247769
     8  H    2.225553   4.355226   5.546198   2.940071   2.430122
                    6          7          8
     6  H    0.000000
     7  O    2.247769   0.000000
     8  H    2.430122   0.988173   0.000000
 Symmetry turned off by external request.
 Stoichiometry    C2H4NO(1-)
 Framework group  CS[SG(C2H2NO),X(H2)]
 Deg. of freedom    12
 Full point group                 CS      NOp   2
 Rotational constants (GHZ):    116.9821591      2.0436637      2.0366792
 Standard basis: 6-31G (6D, 7F)
    44 basis functions,   104 primitive gaussians,    44 cartesian basis functions
    16 alpha electrons       16 beta electrons
       nuclear repulsion energy        90.0668426205 Hartrees.
 NAtoms=    8 NActive=    8 NUniq=    8 SFac= 1.00D+00 NAtFMM=   60 NAOKFM=F Big=F
 Integral buffers will be    131072 words long.
 Raffenetti 1 integral format.
 Two-electron integral symmetry is turned off.
 One-electron integrals computed using PRISM.
 NBasis=    44 RedAO= T EigKep=  5.47D-03  NBF=    44
 NBsUse=    44 1.00D-06 EigRej= -1.00D+00 NBFU=    44
 Initial guess from the checkpoint file:  "/localscratch/rjackson.10730419.0/Gau-17281.chk"
 B after Tr=     0.000734    0.000000    0.000149
         Rot=    1.000000    0.000000   -0.000001   -0.000000 Ang=  -0.00 deg.
 ExpMin= 1.61D-01 ExpMax= 5.48D+03 ExpMxC= 8.25D+02 IAcc=1 IRadAn=         1 AccDes= 0.00D+00
 Harris functional with IExCor=  205 and IRadAn=       1 diagonalized for initial guess.
 HarFok:  IExCor=  205 AccDes= 0.00D+00 IRadAn=         1 IDoV= 1 UseB2=F ITyADJ=14
 ICtDFT=  3500011 ScaDFX=  1.000000  1.000000  1.000000  1.000000
 FoFCou: FMM=F IPFlag=           0 FMFlag=      100000 FMFlg1=           0
         NFxFlg=           0 DoJE=T BraDBF=F KetDBF=T FulRan=T
         wScrn=  0.000000 ICntrl=     500 IOpCl=  0 I1Cent=   200000004 NGrid=           0
         NMat0=    1 NMatS0=      1 NMatT0=    0 NMatD0=    1 NMtDS0=    0 NMtDT0=    0
 Symmetry not used in FoFCou.
 Keep R1 ints in memory in canonical form, NReq=1336260.
 Requested convergence on RMS density matrix=1.00D-08 within 128 cycles.
 Requested convergence on MAX density matrix=1.00D-06.
 Requested convergence on             energy=1.00D-06.
 No special actions if energy rises.
 SCF Done:  E(RHF) =  -207.184311479     A.U. after   12 cycles
            NFock= 12  Conv=0.54D-08     -V/T= 2.0011
 ExpMin= 1.61D-01 ExpMax= 5.48D+03 ExpMxC= 8.25D+02 IAcc=3 IRadAn=         5 AccDes= 0.00D+00
 HarFok:  IExCor=  205 AccDes= 0.00D+00 IRadAn=         5 IDoV=-2 UseB2=F ITyADJ=14
 ICtDFT= 12500011 ScaDFX=  1.000000  1.000000  1.000000  1.000000
 Range of M.O.s used for correlation:     5    44
 NBasis=    44 NAE=    16 NBE=    16 NFC=     4 NFV=     0
 NROrb=     40 NOA=    12 NOB=    12 NVA=    28 NVB=    28
 Fully direct method using O(ONN) memory.
 JobTyp=1 Pass  1:  I=   5 to  16 NPSUse=  1 ParTrn=F ParDer=F DoDerP=T.
 Spin components of T(2) and E(2):
     alpha-alpha T2 =       0.2282244657D-01 E2=     -0.5483234815D-01
     alpha-beta  T2 =       0.1377671188D+00 E2=     -0.3310986797D+00
     beta-beta   T2 =       0.2282244657D-01 E2=     -0.5483234815D-01
 ANorm=    0.1087847421D+01
 E2 =    -0.4407633760D+00 EUMP2 =    -0.20762507485492D+03
          IDoAtm=11111111
          Differentiating once with respect to electric field.
                with respect to dipole field.
          Differentiating once with respect to nuclear coordinates.
 Keep R1 ints in memory in canonical form, NReq=1320523.
          There are     1 degrees of freedom in the 1st order CPHF.  IDoFFX=0 NUNeed=     1.
 LinEq1:  Iter=  0 NonCon=     1 RMS=1.13D-02 Max=8.19D-02 NDo=     1
 AX will form     1 AO Fock derivatives at one time.
 LinEq1:  Iter=  1 NonCon=     1 RMS=3.95D-03 Max=2.78D-02 NDo=     1
 LinEq1:  Iter=  2 NonCon=     1 RMS=1.63D-03 Max=1.14D-02 NDo=     1
 LinEq1:  Iter=  3 NonCon=     1 RMS=6.43D-04 Max=3.83D-03 NDo=     1
 LinEq1:  Iter=  4 NonCon=     1 RMS=2.42D-04 Max=1.78D-03 NDo=     1
 LinEq1:  Iter=  5 NonCon=     1 RMS=8.53D-05 Max=7.13D-04 NDo=     1
 LinEq1:  Iter=  6 NonCon=     1 RMS=1.84D-05 Max=9.54D-05 NDo=     1
 LinEq1:  Iter=  7 NonCon=     1 RMS=5.30D-06 Max=4.49D-05 NDo=     1
 LinEq1:  Iter=  8 NonCon=     1 RMS=7.09D-07 Max=4.71D-06 NDo=     1
 LinEq1:  Iter=  9 NonCon=     1 RMS=1.47D-07 Max=1.40D-06 NDo=     1
 LinEq1:  Iter= 10 NonCon=     1 RMS=2.53D-08 Max=1.86D-07 NDo=     1
 LinEq1:  Iter= 11 NonCon=     1 RMS=3.65D-09 Max=2.40D-08 NDo=     1
 LinEq1:  Iter= 12 NonCon=     1 RMS=5.90D-10 Max=3.98D-09 NDo=     1
 LinEq1:  Iter= 13 NonCon=     0 RMS=8.62D-11 Max=5.37D-10 NDo=     1
 Linear equations converged to 1.000D-10 1.000D-09 after    13 iterations.
 End of Minotr F.D. properties file   721 does not exist.
 End of Minotr F.D. properties file   722 does not exist.
 End of Minotr F.D. properties file   788 does not exist.
 Symmetrizing basis deriv contribution to polar:
 IMax=3 JMax=2 DiffMx= 0.00D+00
 Calling FoFJK, ICntrl=  10002127 FMM=F ISym2X=0 I1Cent= 0 IOpClX= 0 NMat=1 NMatS=1 NMatT=0.
 -------------------------------------------------------------------
 Center     Atomic                   Forces (Hartrees/Bohr)
 Number     Number              X              Y              Z
 -------------------------------------------------------------------
      1        6          -0.056884106    0.000000000    0.001283223
      2        6           0.014960465    0.000000000   -0.000727205
      3        7           0.017746302   -0.000000000   -0.000020306
      4        1           0.000174438   -0.000000000   -0.001795469
      5        1           0.000373212   -0.001746090    0.001074207
      6        1           0.000373212    0.001746090    0.001074207
      7        8           0.022835777   -0.000000000   -0.001331786
      8        1           0.000420699   -0.000000000    0.000443129
 -------------------------------------------------------------------
 Cartesian Forces:  Max     0.056884106 RMS     0.013404418
 IRC-IRC-IRC-IRC-IRC-IRC-IRC-IRC-IRC-IRC-IRC-IRC-IRC-IRC-IRC-IRC-IRC-IRC
 Pt  5 Step number   1 out of a maximum of  20
 Modified Bulirsch-Stoer Extrapolation Cycles:
    EPS =    0.000010000000000
 Maximum DWI energy   std dev =  0.000017983 at pt    36
 Maximum DWI gradient std dev =  0.041730707 at pt    38
 CORRECTOR INTEGRATION CONVERGENCE:
   Recorrection delta-x convergence threshold:    0.010000
   Delta-x Convergence Met
 Point Number:   5          Path Number:   1
   CHANGE IN THE REACTION COORDINATE =    0.31623
   NET REACTION COORDINATE UP TO THIS POINT =    1.58117
  # OF POINTS ALONG THE PATH =   5
  # OF STEPS =   1

 Calculating another point on the path.
 IRC-IRC-IRC-IRC-IRC-IRC-IRC-IRC-IRC-IRC-IRC-IRC-IRC-IRC-IRC-IRC-IRC-IRC
                          Input orientation:                          
 ---------------------------------------------------------------------
 Center     Atomic      Atomic             Coordinates (Angstroms)
 Number     Number       Type             X           Y           Z
 ---------------------------------------------------------------------
      1          6           0       -0.814798    0.000000    0.012791
      2          6           0        1.467359    0.000000   -0.024804
      3          7           0        2.676778   -0.000000   -0.028117
      4          1           0       -0.613365    0.000000    1.074914
      5          1           0       -0.595397    0.921771   -0.514210
      6          1           0       -0.595397   -0.921771   -0.514210
      7          8           0       -2.541292   -0.000000    0.085102
      8          1           0       -2.813898   -0.000000   -0.863464
 ---------------------------------------------------------------------
                    Distance matrix (angstroms):
                    1          2          3          4          5
     1  C    0.000000
     2  C    2.282467   0.000000
     3  N    3.491815   1.209423   0.000000
     4  H    1.081055   2.353464   3.470118   0.000000
     5  H    1.084218   2.311740   3.434105   1.837198   0.000000
     6  H    1.084218   2.311740   3.434105   1.837198   1.843541
     7  O    1.728008   4.010158   5.219298   2.167171   2.235027
     8  H    2.182710   4.362627   5.553857   2.932516   2.427630
                    6          7          8
     6  H    0.000000
     7  O    2.235027   0.000000
     8  H    2.427630   0.986961   0.000000
 Symmetry turned off by external request.
 Stoichiometry    C2H4NO(1-)
 Framework group  CS[SG(C2H2NO),X(H2)]
 Deg. of freedom    12
 Full point group                 CS      NOp   2
 Rotational constants (GHZ):    118.3994734      2.0357510      2.0288600
 Standard basis: 6-31G (6D, 7F)
    44 basis functions,   104 primitive gaussians,    44 cartesian basis functions
    16 alpha electrons       16 beta electrons
       nuclear repulsion energy        90.2740302371 Hartrees.
 NAtoms=    8 NActive=    8 NUniq=    8 SFac= 1.00D+00 NAtFMM=   60 NAOKFM=F Big=F
 Integral buffers will be    131072 words long.
 Raffenetti 1 integral format.
 Two-electron integral symmetry is turned off.
 One-electron integrals computed using PRISM.
 NBasis=    44 RedAO= T EigKep=  5.70D-03  NBF=    44
 NBsUse=    44 1.00D-06 EigRej= -1.00D+00 NBFU=    44
 Initial guess from the checkpoint file:  "/localscratch/rjackson.10730419.0/Gau-17281.chk"
 B after Tr=     0.000357   -0.000000    0.000195
         Rot=    1.000000    0.000000   -0.000011    0.000000 Ang=  -0.00 deg.
 ExpMin= 1.61D-01 ExpMax= 5.48D+03 ExpMxC= 8.25D+02 IAcc=1 IRadAn=         1 AccDes= 0.00D+00
 Harris functional with IExCor=  205 and IRadAn=       1 diagonalized for initial guess.
 HarFok:  IExCor=  205 AccDes= 0.00D+00 IRadAn=         1 IDoV= 1 UseB2=F ITyADJ=14
 ICtDFT=  3500011 ScaDFX=  1.000000  1.000000  1.000000  1.000000
 FoFCou: FMM=F IPFlag=           0 FMFlag=      100000 FMFlg1=           0
         NFxFlg=           0 DoJE=T BraDBF=F KetDBF=T FulRan=T
         wScrn=  0.000000 ICntrl=     500 IOpCl=  0 I1Cent=   200000004 NGrid=           0
         NMat0=    1 NMatS0=      1 NMatT0=    0 NMatD0=    1 NMtDS0=    0 NMtDT0=    0
 Symmetry not used in FoFCou.
 Keep R1 ints in memory in canonical form, NReq=1336243.
 Requested convergence on RMS density matrix=1.00D-08 within 128 cycles.
 Requested convergence on MAX density matrix=1.00D-06.
 Requested convergence on             energy=1.00D-06.
 No special actions if energy rises.
 SCF Done:  E(RHF) =  -207.191948506     A.U. after   12 cycles
            NFock= 12  Conv=0.49D-08     -V/T= 2.0010
 ExpMin= 1.61D-01 ExpMax= 5.48D+03 ExpMxC= 8.25D+02 IAcc=3 IRadAn=         5 AccDes= 0.00D+00
 HarFok:  IExCor=  205 AccDes= 0.00D+00 IRadAn=         5 IDoV=-2 UseB2=F ITyADJ=14
 ICtDFT= 12500011 ScaDFX=  1.000000  1.000000  1.000000  1.000000
 Range of M.O.s used for correlation:     5    44
 NBasis=    44 NAE=    16 NBE=    16 NFC=     4 NFV=     0
 NROrb=     40 NOA=    12 NOB=    12 NVA=    28 NVB=    28
 Fully direct method using O(ONN) memory.
 JobTyp=1 Pass  1:  I=   5 to  16 NPSUse=  1 ParTrn=F ParDer=F DoDerP=T.
 Spin components of T(2) and E(2):
     alpha-alpha T2 =       0.2261718625D-01 E2=     -0.5457927014D-01
     alpha-beta  T2 =       0.1365241860D+00 E2=     -0.3300233662D+00
     beta-beta   T2 =       0.2261718625D-01 E2=     -0.5457927014D-01
 ANorm=    0.1087087190D+01
 E2 =    -0.4391819065D+00 EUMP2 =    -0.20763113041215D+03
          IDoAtm=11111111
          Differentiating once with respect to electric field.
                with respect to dipole field.
          Differentiating once with respect to nuclear coordinates.
 Keep R1 ints in memory in canonical form, NReq=1320521.
          There are     1 degrees of freedom in the 1st order CPHF.  IDoFFX=0 NUNeed=     1.
 LinEq1:  Iter=  0 NonCon=     1 RMS=1.08D-02 Max=7.63D-02 NDo=     1
 AX will form     1 AO Fock derivatives at one time.
 LinEq1:  Iter=  1 NonCon=     1 RMS=3.73D-03 Max=2.78D-02 NDo=     1
 LinEq1:  Iter=  2 NonCon=     1 RMS=1.54D-03 Max=1.07D-02 NDo=     1
 LinEq1:  Iter=  3 NonCon=     1 RMS=5.59D-04 Max=3.20D-03 NDo=     1
 LinEq1:  Iter=  4 NonCon=     1 RMS=2.17D-04 Max=1.47D-03 NDo=     1
 LinEq1:  Iter=  5 NonCon=     1 RMS=7.31D-05 Max=5.55D-04 NDo=     1
 LinEq1:  Iter=  6 NonCon=     1 RMS=1.66D-05 Max=8.79D-05 NDo=     1
 LinEq1:  Iter=  7 NonCon=     1 RMS=4.49D-06 Max=3.30D-05 NDo=     1
 LinEq1:  Iter=  8 NonCon=     1 RMS=6.59D-07 Max=4.80D-06 NDo=     1
 LinEq1:  Iter=  9 NonCon=     1 RMS=1.47D-07 Max=1.30D-06 NDo=     1
 LinEq1:  Iter= 10 NonCon=     1 RMS=2.34D-08 Max=1.66D-07 NDo=     1
 LinEq1:  Iter= 11 NonCon=     1 RMS=3.49D-09 Max=2.45D-08 NDo=     1
 LinEq1:  Iter= 12 NonCon=     1 RMS=5.60D-10 Max=3.69D-09 NDo=     1
 LinEq1:  Iter= 13 NonCon=     0 RMS=7.66D-11 Max=4.08D-10 NDo=     1
 Linear equations converged to 1.000D-10 1.000D-09 after    13 iterations.
 End of Minotr F.D. properties file   721 does not exist.
 End of Minotr F.D. properties file   722 does not exist.
 End of Minotr F.D. properties file   788 does not exist.
 Symmetrizing basis deriv contribution to polar:
 IMax=3 JMax=2 DiffMx= 0.00D+00
 Calling FoFJK, ICntrl=  10002127 FMM=F ISym2X=0 I1Cent= 0 IOpClX= 0 NMat=1 NMatS=1 NMatT=0.
 -------------------------------------------------------------------
 Center     Atomic                   Forces (Hartrees/Bohr)
 Number     Number              X              Y              Z
 -------------------------------------------------------------------
      1        6          -0.058335393   -0.000000000    0.001537683
      2        6           0.015655225    0.000000000   -0.000812342
      3        7           0.018969660   -0.000000000   -0.000021709
      4        1          -0.000208095    0.000000000   -0.001651251
      5        1          -0.000014832   -0.001624363    0.001043628
      6        1          -0.000014832    0.001624363    0.001043628
      7        8           0.023770719    0.000000000   -0.001762838
      8        1           0.000177547   -0.000000000    0.000623200
 -------------------------------------------------------------------
 Cartesian Forces:  Max     0.058335393 RMS     0.013828981
 IRC-IRC-IRC-IRC-IRC-IRC-IRC-IRC-IRC-IRC-IRC-IRC-IRC-IRC-IRC-IRC-IRC-IRC
 Pt  6 Step number   1 out of a maximum of  20
 Modified Bulirsch-Stoer Extrapolation Cycles:
    EPS =    0.000010000000000
 Maximum DWI energy   std dev =  0.000021048 at pt    36
 Maximum DWI gradient std dev =  0.032031234 at pt    38
 CORRECTOR INTEGRATION CONVERGENCE:
   Recorrection delta-x convergence threshold:    0.010000
   Delta-x Convergence Met
 Point Number:   6          Path Number:   1
   CHANGE IN THE REACTION COORDINATE =    0.31624
   NET REACTION COORDINATE UP TO THIS POINT =    1.89741
  # OF POINTS ALONG THE PATH =   6
  # OF STEPS =   1

 Calculating another point on the path.
 IRC-IRC-IRC-IRC-IRC-IRC-IRC-IRC-IRC-IRC-IRC-IRC-IRC-IRC-IRC-IRC-IRC-IRC
                          Input orientation:                          
 ---------------------------------------------------------------------
 Center     Atomic      Atomic             Coordinates (Angstroms)
 Number     Number       Type             X           Y           Z
 ---------------------------------------------------------------------
      1          6           0       -0.857131    0.000000    0.013977
      2          6           0        1.479004    0.000000   -0.025413
      3          7           0        2.688694   -0.000000   -0.028130
      4          1           0       -0.615992    0.000000    1.068618
      5          1           0       -0.596177    0.914777   -0.509075
      6          1           0       -0.596177   -0.914777   -0.509075
      7          8           0       -2.528377    0.000000    0.084174
      8          1           0       -2.813442   -0.000000   -0.859281
 ---------------------------------------------------------------------
                    Distance matrix (angstroms):
                    1          2          3          4          5
     1  C    0.000000
     2  C    2.336467   0.000000
     3  N    3.546076   1.209694   0.000000
     4  H    1.081858   2.363453   3.481926   0.000000
     5  H    1.085586   2.318861   3.443618   1.823821   0.000000
     6  H    1.085586   2.318861   3.443618   1.823821   1.829554
     7  O    1.672719   4.008879   5.218280   2.150894   2.218594
     8  H    2.142365   4.372691   5.564559   2.923282   2.423990
                    6          7          8
     6  H    0.000000
     7  O    2.218594   0.000000
     8  H    2.423990   0.985581   0.000000
 Symmetry turned off by external request.
 Stoichiometry    C2H4NO(1-)
 Framework group  CS[SG(C2H2NO),X(H2)]
 Deg. of freedom    12
 Full point group                 CS      NOp   2
 Rotational constants (GHZ):    120.0576644      2.0268877      2.0201144
 Standard basis: 6-31G (6D, 7F)
    44 basis functions,   104 primitive gaussians,    44 cartesian basis functions
    16 alpha electrons       16 beta electrons
       nuclear repulsion energy        90.5162628768 Hartrees.
 NAtoms=    8 NActive=    8 NUniq=    8 SFac= 1.00D+00 NAtFMM=   60 NAOKFM=F Big=F
 Integral buffers will be    131072 words long.
 Raffenetti 1 integral format.
 Two-electron integral symmetry is turned off.
 One-electron integrals computed using PRISM.
 NBasis=    44 RedAO= T EigKep=  5.94D-03  NBF=    44
 NBsUse=    44 1.00D-06 EigRej= -1.00D+00 NBFU=    44
 Initial guess from the checkpoint file:  "/localscratch/rjackson.10730419.0/Gau-17281.chk"
 B after Tr=    -0.000068    0.000000    0.000244
         Rot=    1.000000    0.000000   -0.000020   -0.000000 Ang=  -0.00 deg.
 ExpMin= 1.61D-01 ExpMax= 5.48D+03 ExpMxC= 8.25D+02 IAcc=1 IRadAn=         1 AccDes= 0.00D+00
 Harris functional with IExCor=  205 and IRadAn=       1 diagonalized for initial guess.
 HarFok:  IExCor=  205 AccDes= 0.00D+00 IRadAn=         1 IDoV= 1 UseB2=F ITyADJ=14
 ICtDFT=  3500011 ScaDFX=  1.000000  1.000000  1.000000  1.000000
 FoFCou: FMM=F IPFlag=           0 FMFlag=      100000 FMFlg1=           0
         NFxFlg=           0 DoJE=T BraDBF=F KetDBF=T FulRan=T
         wScrn=  0.000000 ICntrl=     500 IOpCl=  0 I1Cent=   200000004 NGrid=           0
         NMat0=    1 NMatS0=      1 NMatT0=    0 NMatD0=    1 NMtDS0=    0 NMtDT0=    0
 Symmetry not used in FoFCou.
 Keep R1 ints in memory in canonical form, NReq=1336342.
 Requested convergence on RMS density matrix=1.00D-08 within 128 cycles.
 Requested convergence on MAX density matrix=1.00D-06.
 Requested convergence on             energy=1.00D-06.
 No special actions if energy rises.
 SCF Done:  E(RHF) =  -207.199784756     A.U. after   12 cycles
            NFock= 12  Conv=0.49D-08     -V/T= 2.0009
 ExpMin= 1.61D-01 ExpMax= 5.48D+03 ExpMxC= 8.25D+02 IAcc=3 IRadAn=         5 AccDes= 0.00D+00
 HarFok:  IExCor=  205 AccDes= 0.00D+00 IRadAn=         5 IDoV=-2 UseB2=F ITyADJ=14
 ICtDFT= 12500011 ScaDFX=  1.000000  1.000000  1.000000  1.000000
 Range of M.O.s used for correlation:     5    44
 NBasis=    44 NAE=    16 NBE=    16 NFC=     4 NFV=     0
 NROrb=     40 NOA=    12 NOB=    12 NVA=    28 NVB=    28
 Fully direct method using O(ONN) memory.
 JobTyp=1 Pass  1:  I=   5 to  16 NPSUse=  1 ParTrn=F ParDer=F DoDerP=T.
 Spin components of T(2) and E(2):
     alpha-alpha T2 =       0.2240145460D-01 E2=     -0.5430780577D-01
     alpha-beta  T2 =       0.1351559980D+00 E2=     -0.3287620485D+00
     beta-beta   T2 =       0.2240145460D-01 E2=     -0.5430780577D-01
 ANorm=    0.1086259134D+01
 E2 =    -0.4373776600D+00 EUMP2 =    -0.20763716241598D+03
          IDoAtm=11111111
          Differentiating once with respect to electric field.
                with respect to dipole field.
          Differentiating once with respect to nuclear coordinates.
 Keep R1 ints in memory in canonical form, NReq=1320557.
          There are     1 degrees of freedom in the 1st order CPHF.  IDoFFX=0 NUNeed=     1.
 LinEq1:  Iter=  0 NonCon=     1 RMS=1.03D-02 Max=7.62D-02 NDo=     1
 AX will form     1 AO Fock derivatives at one time.
 LinEq1:  Iter=  1 NonCon=     1 RMS=3.53D-03 Max=2.76D-02 NDo=     1
 LinEq1:  Iter=  2 NonCon=     1 RMS=1.47D-03 Max=1.01D-02 NDo=     1
 LinEq1:  Iter=  3 NonCon=     1 RMS=4.84D-04 Max=2.92D-03 NDo=     1
 LinEq1:  Iter=  4 NonCon=     1 RMS=1.93D-04 Max=1.18D-03 NDo=     1
 LinEq1:  Iter=  5 NonCon=     1 RMS=6.05D-05 Max=3.83D-04 NDo=     1
 LinEq1:  Iter=  6 NonCon=     1 RMS=1.46D-05 Max=7.73D-05 NDo=     1
 LinEq1:  Iter=  7 NonCon=     1 RMS=3.77D-06 Max=2.10D-05 NDo=     1
 LinEq1:  Iter=  8 NonCon=     1 RMS=6.29D-07 Max=5.44D-06 NDo=     1
 LinEq1:  Iter=  9 NonCon=     1 RMS=1.40D-07 Max=1.12D-06 NDo=     1
 LinEq1:  Iter= 10 NonCon=     1 RMS=2.16D-08 Max=1.61D-07 NDo=     1
 LinEq1:  Iter= 11 NonCon=     1 RMS=3.24D-09 Max=1.98D-08 NDo=     1
 LinEq1:  Iter= 12 NonCon=     1 RMS=4.91D-10 Max=3.59D-09 NDo=     1
 LinEq1:  Iter= 13 NonCon=     0 RMS=7.24D-11 Max=4.97D-10 NDo=     1
 Linear equations converged to 1.000D-10 1.000D-09 after    13 iterations.
 End of Minotr F.D. properties file   721 does not exist.
 End of Minotr F.D. properties file   722 does not exist.
 End of Minotr F.D. properties file   788 does not exist.
 Symmetrizing basis deriv contribution to polar:
 IMax=3 JMax=2 DiffMx= 0.00D+00
 Calling FoFJK, ICntrl=  10002127 FMM=F ISym2X=0 I1Cent= 0 IOpClX= 0 NMat=1 NMatS=1 NMatT=0.
 -------------------------------------------------------------------
 Center     Atomic                   Forces (Hartrees/Bohr)
 Number     Number              X              Y              Z
 -------------------------------------------------------------------
      1        6          -0.055734021    0.000000000    0.001682576
      2        6           0.015685657    0.000000000   -0.000859721
      3        7           0.019368823   -0.000000000   -0.000023263
      4        1          -0.000634910   -0.000000000   -0.001376751
      5        1          -0.000424201   -0.001376021    0.000932152
      6        1          -0.000424201    0.001376021    0.000932152
      7        8           0.022264208   -0.000000000   -0.002068014
      8        1          -0.000101355    0.000000000    0.000780869
 -------------------------------------------------------------------
 Cartesian Forces:  Max     0.055734021 RMS     0.013291316
 IRC-IRC-IRC-IRC-IRC-IRC-IRC-IRC-IRC-IRC-IRC-IRC-IRC-IRC-IRC-IRC-IRC-IRC
 Reaction path inflection point has been passed.
   Previous lowest Hessian eigenvalue=   -0.0020230349
   Current lowest Hessian eigenvalue =    0.0001780513
 Pt  7 Step number   1 out of a maximum of  20
 Modified Bulirsch-Stoer Extrapolation Cycles:
    EPS =    0.000010000000000
 Maximum DWI energy   std dev =  0.000023872 at pt    71
 Maximum DWI gradient std dev =  0.023948296 at pt    29
 CORRECTOR INTEGRATION CONVERGENCE:
   Recorrection delta-x convergence threshold:    0.010000
   Delta-x Convergence Met
 Point Number:   7          Path Number:   1
   CHANGE IN THE REACTION COORDINATE =    0.31624
   NET REACTION COORDINATE UP TO THIS POINT =    2.21365
  # OF POINTS ALONG THE PATH =   7
  # OF STEPS =   1

 Calculating another point on the path.
 IRC-IRC-IRC-IRC-IRC-IRC-IRC-IRC-IRC-IRC-IRC-IRC-IRC-IRC-IRC-IRC-IRC-IRC
                          Input orientation:                          
 ---------------------------------------------------------------------
 Center     Atomic      Atomic             Coordinates (Angstroms)
 Number     Number       Type             X           Y           Z
 ---------------------------------------------------------------------
      1          6           0       -0.899106    0.000000    0.015309
      2          6           0        1.491274    0.000000   -0.026085
      3          7           0        2.701551   -0.000000   -0.028147
      4          1           0       -0.622683    0.000000    1.062066
      5          1           0       -0.600782    0.907509   -0.503464
[...]
 LinEq1:  Iter=  0 NonCon=     1 RMS=9.81D-03 Max=5.65D-02 NDo=     1
 AX will form     1 AO Fock derivatives at one time.
 LinEq1:  Iter=  1 NonCon=     1 RMS=2.85D-03 Max=1.75D-02 NDo=     1
 LinEq1:  Iter=  2 NonCon=     1 RMS=1.29D-03 Max=9.88D-03 NDo=     1
 LinEq1:  Iter=  3 NonCon=     1 RMS=5.00D-04 Max=3.99D-03 NDo=     1
 LinEq1:  Iter=  4 NonCon=     1 RMS=1.40D-04 Max=1.65D-03 NDo=     1
 LinEq1:  Iter=  5 NonCon=     1 RMS=5.20D-05 Max=3.25D-04 NDo=     1
 LinEq1:  Iter=  6 NonCon=     1 RMS=1.18D-05 Max=1.30D-04 NDo=     1
 LinEq1:  Iter=  7 NonCon=     1 RMS=2.63D-06 Max=1.98D-05 NDo=     1
 LinEq1:  Iter=  8 NonCon=     1 RMS=8.44D-07 Max=8.05D-06 NDo=     1
 LinEq1:  Iter=  9 NonCon=     1 RMS=2.25D-07 Max=2.41D-06 NDo=     1
 LinEq1:  Iter= 10 NonCon=     1 RMS=3.66D-08 Max=4.44D-07 NDo=     1
 LinEq1:  Iter= 11 NonCon=     1 RMS=5.84D-09 Max=3.89D-08 NDo=     1
 LinEq1:  Iter= 12 NonCon=     1 RMS=5.55D-10 Max=4.67D-09 NDo=     1
 LinEq1:  Iter= 13 NonCon=     1 RMS=8.71D-11 Max=1.14D-09 NDo=     1
 LinEq1:  Iter= 14 NonCon=     0 RMS=1.21D-11 Max=5.62D-11 NDo=     1
 Linear equations converged to 1.000D-10 1.000D-09 after    14 iterations.
 End of Minotr F.D. properties file   721 does not exist.
 End of Minotr F.D. properties file   722 does not exist.
 End of Minotr F.D. properties file   788 does not exist.
 Symmetrizing basis deriv contribution to polar:
 IMax=3 JMax=2 DiffMx= 0.00D+00
 Calling FoFJK, ICntrl=  10002127 FMM=F ISym2X=0 I1Cent= 0 IOpClX= 0 NMat=1 NMatS=1 NMatT=0.
 -------------------------------------------------------------------
 Center     Atomic                   Forces (Hartrees/Bohr)
 Number     Number              X              Y              Z
 -------------------------------------------------------------------
      1        6           0.010690543    0.000000000    0.001916102
      2        6           0.000607554    0.000000000   -0.001175706
      3        7           0.001221745   -0.000000000   -0.000548116
      4        1          -0.000529313   -0.000000000    0.002122181
      5        1          -0.000770483    0.001109268   -0.000401058
      6        1          -0.000770483   -0.001109268   -0.000401058
      7        8          -0.009843155   -0.000000000   -0.002105255
      8        1          -0.000606409   -0.000000000    0.000592910
 -------------------------------------------------------------------
 Cartesian Forces:  Max     0.010690543 RMS     0.003111112
 IRC-IRC-IRC-IRC-IRC-IRC-IRC-IRC-IRC-IRC-IRC-IRC-IRC-IRC-IRC-IRC-IRC-IRC
 Error in corrector energy =          -0.0000719844
 Magnitude of corrector gradient =     0.0129352899
 Magnitude of analytic gradient =      0.0152412756
 Magnitude of difference =             0.0060317736
 Angle between gradients (degrees)=   22.8955
 Pt 19 Step number  18 out of a maximum of  20
 Modified Bulirsch-Stoer Extrapolation Cycles:
    EPS =    0.000010000000000
 Maximum DWI energy   std dev =  0.000023284 at pt    34
 Maximum DWI gradient std dev =  0.208908091 at pt    30
 CORRECTOR INTEGRATION CONVERGENCE:
   Recorrection delta-x convergence threshold:    0.010000
   Delta-x Convergence NOT Met
 IRC-IRC-IRC-IRC-IRC-IRC-IRC-IRC-IRC-IRC-IRC-IRC-IRC-IRC-IRC-IRC-IRC-IRC
                          Input orientation:                          
 ---------------------------------------------------------------------
 Center     Atomic      Atomic             Coordinates (Angstroms)
 Number     Number       Type             X           Y           Z
 ---------------------------------------------------------------------
      1          6           0       -0.182535   -0.000000    0.014305
      2          6           0        1.298836   -0.000000   -0.023242
      3          7           0        2.502347    0.000000   -0.029505
      4          1           0       -0.578662   -0.000000    1.035824
      5          1           0       -0.658010    0.867222   -0.454565
      6          1           0       -0.658010   -0.867222   -0.454565
      7          8           0       -2.719788   -0.000000    0.079262
      8          1           0       -3.010452    0.000000   -0.874747
 ---------------------------------------------------------------------
                    Distance matrix (angstroms):
                    1          2          3          4          5
     1  C    0.000000
     2  C    1.481847   0.000000
     3  N    2.685240   1.203528   0.000000
     4  H    1.095635   2.155601   3.259991   0.000000
     5  H    1.094527   2.183428   3.304634   1.726160   0.000000
     6  H    1.094527   2.183428   3.304634   1.726160   1.734444
     7  O    2.538084   4.019931   5.223268   2.345087   2.299560
     8  H    2.964376   4.392610   5.577220   3.092552   2.542166
                    6          7          8
     6  H    0.000000
     7  O    2.299560   0.000000
     8  H    2.542166   0.997306   0.000000
 Symmetry turned off by external request.
 Stoichiometry    C2H4NO(1-)
 Framework group  CS[SG(C2H2NO),X(H2)]
 Deg. of freedom    12
 Full point group                 CS      NOp   2
 Rotational constants (GHZ):    130.0691154      2.1187548      2.1111993
 Standard basis: 6-31G (6D, 7F)
    44 basis functions,   104 primitive gaussians,    44 cartesian basis functions
    16 alpha electrons       16 beta electrons
       nuclear repulsion energy        91.7542277594 Hartrees.
 NAtoms=    8 NActive=    8 NUniq=    8 SFac= 1.00D+00 NAtFMM=   60 NAOKFM=F Big=F
 Integral buffers will be    131072 words long.
 Raffenetti 1 integral format.
 Two-electron integral symmetry is turned off.
 One-electron integrals computed using PRISM.
 NBasis=    44 RedAO= T EigKep=  2.42D-03  NBF=    44
 NBsUse=    44 1.00D-06 EigRej= -1.00D+00 NBFU=    44
 Initial guess from the checkpoint file:  "/localscratch/rjackson.10730419.0/Gau-17281.chk"
 B after Tr=    -0.000472   -0.000000   -0.000599
         Rot=    1.000000    0.000000    0.000146    0.000000 Ang=   0.02 deg.
 ExpMin= 1.61D-01 ExpMax= 5.48D+03 ExpMxC= 8.25D+02 IAcc=1 IRadAn=         1 AccDes= 0.00D+00
 Harris functional with IExCor=  205 and IRadAn=       1 diagonalized for initial guess.
 HarFok:  IExCor=  205 AccDes= 0.00D+00 IRadAn=         1 IDoV= 1 UseB2=F ITyADJ=14
 ICtDFT=  3500011 ScaDFX=  1.000000  1.000000  1.000000  1.000000
 FoFCou: FMM=F IPFlag=           0 FMFlag=      100000 FMFlg1=           0
         NFxFlg=           0 DoJE=T BraDBF=F KetDBF=T FulRan=T
         wScrn=  0.000000 ICntrl=     500 IOpCl=  0 I1Cent=   200000004 NGrid=           0
         NMat0=    1 NMatS0=      1 NMatT0=    0 NMatD0=    1 NMtDS0=    0 NMtDT0=    0
 Symmetry not used in FoFCou.
 Keep R1 ints in memory in canonical form, NReq=1336534.
 Requested convergence on RMS density matrix=1.00D-08 within 128 cycles.
 Requested convergence on MAX density matrix=1.00D-06.
 Requested convergence on             energy=1.00D-06.
 No special actions if energy rises.
 SCF Done:  E(RHF) =  -207.204039832     A.U. after   13 cycles
            NFock= 13  Conv=0.17D-08     -V/T= 2.0010
 ExpMin= 1.61D-01 ExpMax= 5.48D+03 ExpMxC= 8.25D+02 IAcc=3 IRadAn=         5 AccDes= 0.00D+00
 HarFok:  IExCor=  205 AccDes= 0.00D+00 IRadAn=         5 IDoV=-2 UseB2=F ITyADJ=14
 ICtDFT= 12500011 ScaDFX=  1.000000  1.000000  1.000000  1.000000
 Range of M.O.s used for correlation:     5    44
 NBasis=    44 NAE=    16 NBE=    16 NFC=     4 NFV=     0
 NROrb=     40 NOA=    12 NOB=    12 NVA=    28 NVB=    28
 Fully direct method using O(ONN) memory.
 JobTyp=1 Pass  1:  I=   5 to  16 NPSUse=  1 ParTrn=F ParDer=F DoDerP=T.
 Spin components of T(2) and E(2):
     alpha-alpha T2 =       0.2232324852D-01 E2=     -0.5460330110D-01
     alpha-beta  T2 =       0.1321792930D+00 E2=     -0.3276567522D+00
     beta-beta   T2 =       0.2232324852D-01 E2=     -0.5460330110D-01
 ANorm=    0.1084816017D+01
 E2 =    -0.4368633544D+00 EUMP2 =    -0.20764090318620D+03
          IDoAtm=11111111
          Differentiating once with respect to electric field.
                with respect to dipole field.
          Differentiating once with respect to nuclear coordinates.
 Keep R1 ints in memory in canonical form, NReq=1320685.
          There are     1 degrees of freedom in the 1st order CPHF.  IDoFFX=0 NUNeed=     1.
 LinEq1:  Iter=  0 NonCon=     1 RMS=9.85D-03 Max=5.67D-02 NDo=     1
 AX will form     1 AO Fock derivatives at one time.
 LinEq1:  Iter=  1 NonCon=     1 RMS=2.86D-03 Max=1.73D-02 NDo=     1
 LinEq1:  Iter=  2 NonCon=     1 RMS=1.30D-03 Max=9.85D-03 NDo=     1
 LinEq1:  Iter=  3 NonCon=     1 RMS=5.07D-04 Max=4.05D-03 NDo=     1
 LinEq1:  Iter=  4 NonCon=     1 RMS=1.43D-04 Max=1.69D-03 NDo=     1
 LinEq1:  Iter=  5 NonCon=     1 RMS=5.26D-05 Max=3.14D-04 NDo=     1
 LinEq1:  Iter=  6 NonCon=     1 RMS=1.17D-05 Max=1.28D-04 NDo=     1
 LinEq1:  Iter=  7 NonCon=     1 RMS=2.79D-06 Max=2.11D-05 NDo=     1
 LinEq1:  Iter=  8 NonCon=     1 RMS=9.47D-07 Max=8.97D-06 NDo=     1
 LinEq1:  Iter=  9 NonCon=     1 RMS=2.35D-07 Max=2.53D-06 NDo=     1
 LinEq1:  Iter= 10 NonCon=     1 RMS=3.83D-08 Max=4.58D-07 NDo=     1
 LinEq1:  Iter= 11 NonCon=     1 RMS=6.01D-09 Max=4.06D-08 NDo=     1
 LinEq1:  Iter= 12 NonCon=     1 RMS=5.56D-10 Max=4.60D-09 NDo=     1
 LinEq1:  Iter= 13 NonCon=     1 RMS=8.49D-11 Max=1.12D-09 NDo=     1
 LinEq1:  Iter= 14 NonCon=     0 RMS=1.17D-11 Max=5.78D-11 NDo=     1
 Linear equations converged to 1.000D-10 1.000D-09 after    14 iterations.
 End of Minotr F.D. properties file   721 does not exist.
 End of Minotr F.D. properties file   722 does not exist.
 End of Minotr F.D. properties file   788 does not exist.
 Symmetrizing basis deriv contribution to polar:
 IMax=3 JMax=2 DiffMx= 0.00D+00
 Calling FoFJK, ICntrl=  10002127 FMM=F ISym2X=0 I1Cent= 0 IOpClX= 0 NMat=1 NMatS=1 NMatT=0.
 -------------------------------------------------------------------
 Center     Atomic                   Forces (Hartrees/Bohr)
 Number     Number              X              Y              Z
 -------------------------------------------------------------------
      1        6           0.003453960    0.000000000    0.002354760
      2        6           0.002926049   -0.000000000   -0.000801604
      3        7          -0.000271024   -0.000000000   -0.000581148
      4        1           0.002027850   -0.000000000   -0.001059352
      5        1           0.001254178   -0.000968680    0.000847008
      6        1           0.001254178    0.000968680    0.000847008
      7        8          -0.009618638    0.000000000   -0.001116976
      8        1          -0.001026554    0.000000000   -0.000489697
 -------------------------------------------------------------------
 Cartesian Forces:  Max     0.009618638 RMS     0.002361511
 IRC-IRC-IRC-IRC-IRC-IRC-IRC-IRC-IRC-IRC-IRC-IRC-IRC-IRC-IRC-IRC-IRC-IRC
 Error in corrector energy =          -0.0000589671
 Magnitude of corrector gradient =     0.0128299044
 Magnitude of analytic gradient =      0.0115689918
 Magnitude of difference =             0.0057715758
 Angle between gradients (degrees)=   26.7290
 Pt 19 Step number  19 out of a maximum of  20
 Modified Bulirsch-Stoer Extrapolation Cycles:
    EPS =    0.000010000000000
 Maximum DWI energy   std dev =  0.000025755 at pt    32
 Maximum DWI gradient std dev =  0.163806546 at pt    64
 CORRECTOR INTEGRATION CONVERGENCE:
   Recorrection delta-x convergence threshold:    0.010000
   Delta-x Convergence NOT Met
 IRC-IRC-IRC-IRC-IRC-IRC-IRC-IRC-IRC-IRC-IRC-IRC-IRC-IRC-IRC-IRC-IRC-IRC
                          Input orientation:                          
 ---------------------------------------------------------------------
 Center     Atomic      Atomic             Coordinates (Angstroms)
 Number     Number       Type             X           Y           Z
 ---------------------------------------------------------------------
      1          6           0       -0.185712    0.000000    0.014475
      2          6           0        1.300131   -0.000000   -0.023086
      3          7           0        2.502759   -0.000000   -0.029552
      4          1           0       -0.564900    0.000000    1.035934
      5          1           0       -0.650627    0.867144   -0.453081
      6          1           0       -0.650627   -0.867144   -0.453081
      7          8           0       -2.719637   -0.000000    0.079628
      8          1           0       -3.024020    0.000000   -0.871687
 ---------------------------------------------------------------------
                    Distance matrix (angstroms):
                    1          2          3          4          5
     1  C    0.000000
     2  C    1.486318   0.000000
     3  N    2.688832   1.202646   0.000000
     4  H    1.089570   2.144729   3.247428   0.000000
     5  H    1.089355   2.177681   3.297752   1.725240   0.000000
     6  H    1.089355   2.177681   3.297752   1.725240   1.734289
     7  O    2.534762   4.021080   5.223538   2.357417   2.305758
     8  H    2.973428   4.406632   5.590571   3.112280   2.561281
                    6          7          8
     6  H    0.000000
     7  O    2.305758   0.000000
     8  H    2.561281   0.998824   0.000000
 Symmetry turned off by external request.
 Stoichiometry    C2H4NO(1-)
 Framework group  CS[SG(C2H2NO),X(H2)]
 Deg. of freedom    12
 Full point group                 CS      NOp   2
 Rotational constants (GHZ):    130.3155422      2.1177140      2.1102259
 Standard basis: 6-31G (6D, 7F)
    44 basis functions,   104 primitive gaussians,    44 cartesian basis functions
    16 alpha electrons       16 beta electrons
       nuclear repulsion energy        91.7601845223 Hartrees.
 NAtoms=    8 NActive=    8 NUniq=    8 SFac= 1.00D+00 NAtFMM=   60 NAOKFM=F Big=F
 Integral buffers will be    131072 words long.
 Raffenetti 1 integral format.
 Two-electron integral symmetry is turned off.
 One-electron integrals computed using PRISM.
 NBasis=    44 RedAO= T EigKep=  2.43D-03  NBF=    44
 NBsUse=    44 1.00D-06 EigRej= -1.00D+00 NBFU=    44
 Initial guess from the checkpoint file:  "/localscratch/rjackson.10730419.0/Gau-17281.chk"
 B after Tr=     0.000480    0.000000    0.000608
         Rot=    1.000000    0.000000   -0.000148    0.000000 Ang=  -0.02 deg.
 ExpMin= 1.61D-01 ExpMax= 5.48D+03 ExpMxC= 8.25D+02 IAcc=1 IRadAn=         1 AccDes= 0.00D+00
 Harris functional with IExCor=  205 and IRadAn=       1 diagonalized for initial guess.
 HarFok:  IExCor=  205 AccDes= 0.00D+00 IRadAn=         1 IDoV= 1 UseB2=F ITyADJ=14
 ICtDFT=  3500011 ScaDFX=  1.000000  1.000000  1.000000  1.000000
 FoFCou: FMM=F IPFlag=           0 FMFlag=      100000 FMFlg1=           0
         NFxFlg=           0 DoJE=T BraDBF=F KetDBF=T FulRan=T
         wScrn=  0.000000 ICntrl=     500 IOpCl=  0 I1Cent=   200000004 NGrid=           0
         NMat0=    1 NMatS0=      1 NMatT0=    0 NMatD0=    1 NMtDS0=    0 NMtDT0=    0
 Symmetry not used in FoFCou.
 Keep R1 ints in memory in canonical form, NReq=1336534.
 Requested convergence on RMS density matrix=1.00D-08 within 128 cycles.
 Requested convergence on MAX density matrix=1.00D-06.
 Requested convergence on             energy=1.00D-06.
 No special actions if energy rises.
 SCF Done:  E(RHF) =  -207.204603525     A.U. after   13 cycles
            NFock= 13  Conv=0.17D-08     -V/T= 2.0009
 ExpMin= 1.61D-01 ExpMax= 5.48D+03 ExpMxC= 8.25D+02 IAcc=3 IRadAn=         5 AccDes= 0.00D+00
 HarFok:  IExCor=  205 AccDes= 0.00D+00 IRadAn=         5 IDoV=-2 UseB2=F ITyADJ=14
 ICtDFT= 12500011 ScaDFX=  1.000000  1.000000  1.000000  1.000000
 Range of M.O.s used for correlation:     5    44
 NBasis=    44 NAE=    16 NBE=    16 NFC=     4 NFV=     0
 NROrb=     40 NOA=    12 NOB=    12 NVA=    28 NVB=    28
 Fully direct method using O(ONN) memory.
 JobTyp=1 Pass  1:  I=   5 to  16 NPSUse=  1 ParTrn=F ParDer=F DoDerP=T.
 Spin components of T(2) and E(2):
     alpha-alpha T2 =       0.2226244712D-01 E2=     -0.5451710588D-01
     alpha-beta  T2 =       0.1318613137D+00 E2=     -0.3272719627D+00
     beta-beta   T2 =       0.2226244712D-01 E2=     -0.5451710588D-01
 ANorm=    0.1084613391D+01
 E2 =    -0.4363061744D+00 EUMP2 =    -0.20764090969929D+03
          IDoAtm=11111111
          Differentiating once with respect to electric field.
                with respect to dipole field.
          Differentiating once with respect to nuclear coordinates.
 Keep R1 ints in memory in canonical form, NReq=1320723.
          There are     1 degrees of freedom in the 1st order CPHF.  IDoFFX=0 NUNeed=     1.
 LinEq1:  Iter=  0 NonCon=     1 RMS=9.81D-03 Max=5.65D-02 NDo=     1
 AX will form     1 AO Fock derivatives at one time.
 LinEq1:  Iter=  1 NonCon=     1 RMS=2.85D-03 Max=1.75D-02 NDo=     1
 LinEq1:  Iter=  2 NonCon=     1 RMS=1.29D-03 Max=9.88D-03 NDo=     1
 LinEq1:  Iter=  3 NonCon=     1 RMS=5.00D-04 Max=3.99D-03 NDo=     1
 LinEq1:  Iter=  4 NonCon=     1 RMS=1.40D-04 Max=1.65D-03 NDo=     1
 LinEq1:  Iter=  5 NonCon=     1 RMS=5.20D-05 Max=3.25D-04 NDo=     1
 LinEq1:  Iter=  6 NonCon=     1 RMS=1.18D-05 Max=1.30D-04 NDo=     1
 LinEq1:  Iter=  7 NonCon=     1 RMS=2.62D-06 Max=1.98D-05 NDo=     1
 LinEq1:  Iter=  8 NonCon=     1 RMS=8.43D-07 Max=8.04D-06 NDo=     1
 LinEq1:  Iter=  9 NonCon=     1 RMS=2.25D-07 Max=2.41D-06 NDo=     1
 LinEq1:  Iter= 10 NonCon=     1 RMS=3.66D-08 Max=4.44D-07 NDo=     1
 LinEq1:  Iter= 11 NonCon=     1 RMS=5.84D-09 Max=3.89D-08 NDo=     1
 LinEq1:  Iter= 12 NonCon=     1 RMS=5.55D-10 Max=4.67D-09 NDo=     1
 LinEq1:  Iter= 13 NonCon=     1 RMS=8.71D-11 Max=1.14D-09 NDo=     1
 LinEq1:  Iter= 14 NonCon=     0 RMS=1.21D-11 Max=5.62D-11 NDo=     1
 Linear equations converged to 1.000D-10 1.000D-09 after    14 iterations.
 End of Minotr F.D. properties file   721 does not exist.
 End of Minotr F.D. properties file   722 does not exist.
 End of Minotr F.D. properties file   788 does not exist.
 Symmetrizing basis deriv contribution to polar:
 IMax=3 JMax=2 DiffMx= 0.00D+00
 Calling FoFJK, ICntrl=  10002127 FMM=F ISym2X=0 I1Cent= 0 IOpClX= 0 NMat=1 NMatS=1 NMatT=0.
 -------------------------------------------------------------------
 Center     Atomic                   Forces (Hartrees/Bohr)
 Number     Number              X              Y              Z
 -------------------------------------------------------------------
      1        6           0.010771420   -0.000000000    0.001910863
      2        6           0.000589388    0.000000000   -0.001180291
      3        7           0.001234708    0.000000000   -0.000547748
      4        1          -0.000558659    0.000000000    0.002166337
      5        1          -0.000794224    0.001138077   -0.000418932
      6        1          -0.000794224   -0.001138077   -0.000418932
      7        8          -0.009847317   -0.000000000   -0.002117927
      8        1          -0.000601091    0.000000000    0.000606631
 -------------------------------------------------------------------
 Cartesian Forces:  Max     0.010771420 RMS     0.003126717
 IRC-IRC-IRC-IRC-IRC-IRC-IRC-IRC-IRC-IRC-IRC-IRC-IRC-IRC-IRC-IRC-IRC-IRC
 Error in corrector energy =          -0.0000751596
 Magnitude of corrector gradient =     0.0129585087
 Magnitude of analytic gradient =      0.0153177217
 Magnitude of difference =             0.0061519421
 Angle between gradients (degrees)=   23.2652
 Pt 19 Step number  20 out of a maximum of  20
 Modified Bulirsch-Stoer Extrapolation Cycles:
    EPS =    0.000010000000000
 Maximum DWI energy   std dev =  0.000023096 at pt    34
 Maximum DWI gradient std dev =  0.209515725 at pt    30
 CORRECTOR INTEGRATION CONVERGENCE:
   Recorrection delta-x convergence threshold:    0.010000
   Delta-x Convergence NOT Met
 Maximum number of corrector steps exceded.
 Error termination via Lnk1e in /opt/software/gaussian/g09.e01/l123.exe at Thu Jan 10 15:59:47 2019.
 Job cpu time:       0 days  0 hours  1 minutes 55.5 seconds.
 File lengths (MBytes):  RWF=     51 Int=      0 D2E=      0 Chk=      2 Scr=      1
