 Entering Gaussian System, Link 0=g09
 Initial command:
 /opt/software/gaussian/g09.e01/l1.exe "/localscratch/rjackson.18103347.0/Gau-115266.inp" -scrdir="/localscratch/rjackson.18103347.0/"
 Entering Link 1 = /opt/software/gaussian/g09.e01/l1.exe PID=    115267.
  
 Copyright (c) 1988,1990,1992,1993,1995,1998,2003,2009,2015,
            Gaussian, Inc.  All Rights Reserved.
  
 This is part of the Gaussian(R) 09 program.  It is based on
 the Gaussian(R) 03 system (copyright 2003, Gaussian, Inc.),
 the Gaussian(R) 98 system (copyright 1998, Gaussian, Inc.),
 the Gaussian(R) 94 system (copyright 1995, Gaussian, Inc.),
 the Gaussian 92(TM) system (copyright 1992, Gaussian, Inc.),
 the Gaussian 90(TM) system (copyright 1990, Gaussian, Inc.),
 the Gaussian 88(TM) system (copyright 1988, Gaussian, Inc.),
 the Gaussian 86(TM) system (copyright 1986, Carnegie Mellon
 University), and the Gaussian 82(TM) system (copyright 1983,
 Carnegie Mellon University). Gaussian is a federally registered
 trademark of Gaussian, Inc.
  
 This software contains proprietary and confidential information,
 including trade secrets, belonging to Gaussian, Inc.
  
 This software is provided under written license and may be
 used, copied, transmitted, or stored only in accord with that
 written license.
  
 The following legend is applicable only to US Government
 contracts under FAR:
  
                    RESTRICTED RIGHTS LEGEND
  
 Use, reproduction and disclosure by the US Government is
 subject to restrictions as set forth in subparagraphs (a)
 and (c) of the Commercial Computer Software - Restricted
 Rights clause in FAR 52.227-19.
  
 Gaussian, Inc.
 340 Quinnipiac St., Bldg. 40, Wallingford CT 06492
  
  
 ---------------------------------------------------------------
 Warning -- This program may not be used in any manner that
 competes with the business of Gaussian, Inc. or will provide
 assistance to any competitor of Gaussian, Inc.  The licensee
 of this program is prohibited from giving any competitor of
 Gaussian, Inc. access to this program.  By using this program,
 the user acknowledges that Gaussian, Inc. is engaged in the
 business of creating and licensing software in the field of
 computational chemistry and represents and warrants to the
 licensee that it is not a competitor of Gaussian, Inc. and that
 it will not use this program in any manner prohibited above.
 ---------------------------------------------------------------
  

 Cite this work as:
 Gaussian 09, Revision E.01,
 M. J. Frisch, G. W. Trucks, H. B. Schlegel, G. E. Scuseria, 
 M. A. Robb, J. R. Cheeseman, G. Scalmani, V. Barone, B. Mennucci, 
 G. A. Petersson, H. Nakatsuji, M. Caricato, X. Li, H. P. Hratchian, 
 A. F. Izmaylov, J. Bloino, G. Zheng, J. L. Sonnenberg, M. Hada, 
 M. Ehara, K. Toyota, R. Fukuda, J. Hasegawa, M. Ishida, T. Nakajima, 
 Y. Honda, O. Kitao, H. Nakai, T. Vreven, J. A. Montgomery, Jr., 
 J. E. Peralta, F. Ogliaro, M. Bearpark, J. J. Heyd, E. Brothers, 
 K. N. Kudin, V. N. Staroverov, T. Keith, R. Kobayashi, J. Normand, 
 K. Raghavachari, A. Rendell, J. C. Burant, S. S. Iyengar, J. Tomasi, 
 M. Cossi, N. Rega, J. M. Millam, M. Klene, J. E. Knox, J. B. Cross, 
 V. Bakken, C. Adamo, J. Jaramillo, R. Gomperts, R. E. Stratmann, 
 O. Yazyev, A. J. Austin, R. Cammi, C. Pomelli, J. W. Ochterski, 
 R. L. Martin, K. Morokuma, V. G. Zakrzewski, G. A. Voth, 
 P. Salvador, J. J. Dannenberg, S. Dapprich, A. D. Daniels, 
 O. Farkas, J. B. Foresman, J. V. Ortiz, J. Cioslowski, 
 and D. J. Fox, Gaussian, Inc., Wallingford CT, 2013.
 
 ******************************************
 Gaussian 09:  EM64L-G09RevE.01 30-Nov-2015
                12-Mar-2019 
 ******************************************
 ----------------------------------------------------------------------
 # m06l/aug-cc-PVDZ opt(qst3, calcfc, noeigen, tight) integral(grid=sup
 erfine) scf(maxcyc=256) freq
 ----------------------------------------------------------------------
 1/5=1,7=10,10=4,11=1,14=-1,18=20,26=5,27=203,38=1/1,3;
 2/9=110,12=2,17=6,18=5,40=1/2;
 3/5=16,7=10,11=2,16=1,25=1,30=1,71=2,74=-53,75=-7,140=1/1,2,3;
 4//1;
 5/5=2,7=256,38=5/2;
 8/6=4,10=90,11=11/1;
 11/6=1,8=1,9=11,15=111,16=1/1,2,10;
 10/6=1,13=1/2;
 6/7=2,8=2,9=2,10=2,28=1/1;
 7/10=1,18=20,25=1/1,2,3,16;
 1/5=1,7=10,10=4,11=1,14=-1,18=20,26=5,27=203/3(2);
 2/9=110/2;
 99//99;
 2/9=110/2;
 3/5=16,7=10,11=2,16=1,25=1,30=1,71=1,74=-53,75=-7/1,2,3;
 4/5=5,16=3,69=1/1;
 5/5=2,7=256,38=5/2;
 7//1,2,3,16;
 1/5=1,7=10,11=1,14=-1,18=20,26=5,27=203/3(-5);
 2/9=110/2;
 6/7=2,8=2,9=2,10=2,19=2,28=1/1;
 99/9=1/99;
 --------------------------------
 OH-chloromethane_ts.xyz reactant
 --------------------------------
 Symbolic Z-matrix:
 Charge = -1 Multiplicity = 1
 Cl                   -0.79679  -2.30851   0.02007 
 C                     1.24303   0.70167   0.12683 
 H                     0.83378   0.71833   1.15472 
 H                     0.4412    1.04502  -0.55399 
 H                     2.07475   1.42349   0.07374 
 O                     1.74166  -0.56632  -0.23016 
 H                     0.98042  -1.20549  -0.17743 
 
 Add virtual bond connecting atoms H7         and Cl1        Dist= 3.97D+00.
 -------------------------------
 OH-chloromethane_ts.xyz product
 -------------------------------
 Symbolic Z-matrix:
 Charge = -1 Multiplicity = 1
 Cl                   -1.01055  -0.67958  -0.4329 
 C                     0.29418   0.40727   0.51644 
 H                    -0.02185   0.21696   1.56257 
 H                     1.87095  -0.04498   0.01009 
 H                    -0.08934   1.42036   0.27759 
 O                     2.8296   -0.34577  -0.32196 
 H                     2.62192  -1.03861  -0.95992 
 
 Add virtual bond connecting atoms H4         and C2         Dist= 3.24D+00.
 --------------------------
 OH-chloromethane_ts.xyz ts
 --------------------------
 Symbolic Z-matrix:
 Charge = -1 Multiplicity = 1
 Cl                   -1.65785   0.00004   0.00001 
 C                     0.39841  -0.01466  0. 
 H                     0.56615  -0.54597   0.92926 
 H                     0.56614  -0.54605  -0.92922 
 H                     0.58955   1.05247  -0.00005 
 O                     2.63176   0.11322  -0.00002 
 H                     3.01714  -0.77887   0.00002 
 

 GradGradGradGradGradGradGradGradGradGradGradGradGradGradGradGradGradGrad
 Berny optimization.
 Initialization pass.
                           ----------------------------
                           !    Initial Parameters    !
                           ! (Angstroms and Degrees)  !
 --------------------------                            --------------------------
 ! Name  Definition        TS        Reactant  Product Derivative Info.         !
 --------------------------------------------------------------------------------
 ! R1    R(1,2)             2.0563    3.6378    1.9455 calculate D2E/DX2 analyti!
 ! R2    R(1,7)             4.7394    2.101     3.688  calculate D2E/DX2 analyti!
 ! R3    R(2,3)             1.0835    1.1065    1.1093 calculate D2E/DX2 analyti!
 ! R4    R(2,4)             1.0835    1.1065    1.7167 calculate D2E/DX2 analyti!
 ! R5    R(2,5)             1.0841    1.1025    1.1093 calculate D2E/DX2 analyti!
 ! R6    R(2,6)             2.237     1.4085    2.7746 calculate D2E/DX2 analyti!
 ! R7    R(4,6)             2.359     2.0958    1.0582 calculate D2E/DX2 analyti!
 ! R8    R(6,7)             0.9718    0.9954    0.9644 calculate D2E/DX2 analyti!
 ! A1    A(1,2,3)          99.1088   80.3473   99.9787 calculate D2E/DX2 analyti!
 ! A2    A(1,2,4)          99.1089   80.3505  108.9586 calculate D2E/DX2 analyti!
 ! A3    A(1,2,5)          99.745   164.4338   99.9787 calculate D2E/DX2 analyti!
 ! A4    A(3,2,4)         118.1043  107.3908  119.6464 calculate D2E/DX2 analyti!
 ! A5    A(3,2,5)         117.0925  108.2939  105.1436 calculate D2E/DX2 analyti!
 ! A6    A(3,2,6)          82.7314  112.3299  119.9176 calculate D2E/DX2 analyti!
 ! A7    A(4,2,5)         117.0924  108.2927  119.6461 calculate D2E/DX2 analyti!
 ! A8    A(4,2,6)          82.7314  112.3303    0.6719 calculate D2E/DX2 analyti!
 ! A9    A(5,2,6)          76.5681  108.0659  119.9172 calculate D2E/DX2 analyti!
 ! A10   L(2,4,6,1,-1)    180.5591  140.4822  178.2379 calculate D2E/DX2 analyti!
 ! A11   L(2,4,6,1,-2)      3.7218  327.5048  179.9996 calculate D2E/DX2 analyti!
 ! A12   A(2,6,7)         110.0872  107.092   101.425  calculate D2E/DX2 analyti!
 ! A13   A(4,6,7)          95.2049   91.5666  102.5152 calculate D2E/DX2 analyti!
 ! A14   L(1,7,6,3,-1)     84.2682  172.2561   95.7831 calculate D2E/DX2 analyti!
 ! A15   L(1,7,6,3,-2)    292.2713  183.8147  206.2687 calculate D2E/DX2 analyti!
 ! D1    D(1,2,6,7)       179.9999    0.0001    0.0003 calculate D2E/DX2 analyti!
 ! D2    D(3,2,6,7)        59.8352   60.5979  113.6231 calculate D2E/DX2 analyti!
 ! D3    D(4,2,6,7)       -59.8352  -60.6019  179.9928 calculate D2E/DX2 analyti!
 ! D4    D(5,2,6,7)      -180.0     179.9986 -113.6223 calculate D2E/DX2 analyti!
 --------------------------------------------------------------------------------
 Trust Radius=3.00D-01 FncErr=1.00D-07 GrdErr=1.00D-07
 Number of steps in this run=     37 maximum allowed number of steps=    100.
 Search for a saddle point of order  1.
 GradGradGradGradGradGradGradGradGradGradGradGradGradGradGradGradGradGrad

                          Input orientation:                          
 ---------------------------------------------------------------------
 Center     Atomic      Atomic             Coordinates (Angstroms)
 Number     Number       Type             X           Y           Z
 ---------------------------------------------------------------------
      1         17           0       -1.657852    0.000036    0.000008
      2          6           0        0.398411   -0.014663   -0.000001
      3          1           0        0.566149   -0.545967    0.929261
      4          1           0        0.566141   -0.546052   -0.929216
      5          1           0        0.589545    1.052467   -0.000051
      6          8           0        2.631756    0.113223   -0.000017
      7          1           0        3.017143   -0.778872    0.000022
 ---------------------------------------------------------------------
                    Distance matrix (angstroms):
                    1          2          3          4          5
     1  Cl   0.000000
     2  C    2.056316   0.000000
     3  H    2.471399   1.083489   0.000000
     4  H    2.471399   1.083489   1.858477   0.000000
     5  H    2.481613   1.084112   1.849097   1.849097   0.000000
     6  O    4.291101   2.237004   2.358987   2.358987   2.247845
     7  H    4.739438   2.727961   2.631559   2.631558   3.040894
                    6          7
     6  O    0.000000
     7  H    0.971780   0.000000
 Stoichiometry    CH4ClO(1-)
 Framework group  C1[X(CH4ClO)]
 Deg. of freedom    15
 Full point group                 C1      NOp   1
 Largest Abelian subgroup         C1      NOp   1
 Largest concise Abelian subgroup C1      NOp   1
                         Standard orientation:                         
 ---------------------------------------------------------------------
 Center     Atomic      Atomic             Coordinates (Angstroms)
 Number     Number       Type             X           Y           Z
 ---------------------------------------------------------------------
      1         17           0       -1.657852    0.000036    0.000008
      2          6           0        0.398411   -0.014663   -0.000001
      3          1           0        0.566149   -0.545967    0.929261
      4          1           0        0.566141   -0.546052   -0.929216
      5          1           0        0.589545    1.052467   -0.000051
      6          8           0        2.631756    0.113223   -0.000017
      7          1           0        3.017143   -0.778872    0.000022
 ---------------------------------------------------------------------
 Rotational constants (GHZ):    119.1886259      2.2957138      2.2878237
 Standard basis: Aug-CC-pVDZ (5D, 7F)
 There are   115 symmetry adapted cartesian basis functions of A   symmetry.
 There are   109 symmetry adapted basis functions of A   symmetry.
   109 basis functions,   211 primitive gaussians,   115 cartesian basis functions
    18 alpha electrons       18 beta electrons
       nuclear repulsion energy        88.3939756081 Hartrees.
 NAtoms=    7 NActive=    7 NUniq=    7 SFac= 1.00D+00 NAtFMM=   60 NAOKFM=F Big=F
 Integral buffers will be    131072 words long.
 Raffenetti 2 integral format.
 Two-electron integral symmetry is turned on.
 One-electron integrals computed using PRISM.
 NBasis=   109 RedAO= T EigKep=  6.17D-04  NBF=   109
 NBsUse=   109 1.00D-06 EigRej= -1.00D+00 NBFU=   109
 ExpMin= 2.97D-02 ExpMax= 1.28D+05 ExpMxC= 1.24D+03 IAcc=3 IRadAn=         7 AccDes= 0.00D+00
 Harris functional with IExCor= 1009 and IRadAn=       7 diagonalized for initial guess.
 HarFok:  IExCor= 1009 AccDes= 0.00D+00 IRadAn=         7 IDoV= 1 UseB2=F ITyADJ=14
 ICtDFT=  3500011 ScaDFX=  1.000000  1.000000  1.000000  1.000000
 FoFCou: FMM=F IPFlag=           0 FMFlag=      100000 FMFlg1=           0
         NFxFlg=           0 DoJE=T BraDBF=F KetDBF=T FulRan=T
         wScrn=  0.000000 ICntrl=     500 IOpCl=  0 I1Cent=   200000004 NGrid=           0
         NMat0=    1 NMatS0=      1 NMatT0=    0 NMatD0=    1 NMtDS0=    0 NMtDT0=    0
 Petite list used in FoFCou.
 Keep J ints in memory in canonical form, NReq=19025443.
 Requested convergence on RMS density matrix=1.00D-08 within 256 cycles.
 Requested convergence on MAX density matrix=1.00D-06.
 Requested convergence on             energy=1.00D-06.
 No special actions if energy rises.
 SCF Done:  E(RM06L) =  -575.930108613     A.U. after   15 cycles
            NFock= 15  Conv=0.80D-08     -V/T= 2.0027
 DoSCS=F DFT=T ScalE2(SS,OS)=  1.000000  1.000000
 Range of M.O.s used for correlation:     1   109
 NBasis=   109 NAE=    18 NBE=    18 NFC=     0 NFV=     0
 NROrb=    109 NOA=    18 NOB=    18 NVA=    91 NVB=    91

 **** Warning!!: The largest alpha MO coefficient is  0.15175665D+02

 Symmetrizing basis deriv contribution to polar:
 IMax=3 JMax=2 DiffMx= 0.00D+00
 G2DrvN: will do     8 centers at a time, making    1 passes.
 Calling FoFCou, ICntrl=  3507 FMM=F I1Cent=   0 AccDes= 0.00D+00.
 End of G2Drv F.D. properties file   721 does not exist.
 End of G2Drv F.D. properties file   722 does not exist.
 End of G2Drv F.D. properties file   788 does not exist.
          IDoAtm=1111111
          Differentiating once with respect to nuclear coordinates.
 Keep J ints in memory in canonical form, NReq=18928469.
          There are    24 degrees of freedom in the 1st order CPHF.  IDoFFX=6 NUNeed=     0.
     18 vectors produced by pass  0 Test12= 6.82D-15 4.17D-09 XBig12= 7.19D-02 1.09D-01.
 AX will form    18 AO Fock derivatives at one time.
     18 vectors produced by pass  1 Test12= 6.82D-15 4.17D-09 XBig12= 2.71D-02 5.10D-02.
     18 vectors produced by pass  2 Test12= 6.82D-15 4.17D-09 XBig12= 2.89D-03 1.67D-02.
     18 vectors produced by pass  3 Test12= 6.82D-15 4.17D-09 XBig12= 9.91D-05 2.32D-03.
     18 vectors produced by pass  4 Test12= 6.82D-15 4.17D-09 XBig12= 1.54D-06 2.33D-04.
     18 vectors produced by pass  5 Test12= 6.82D-15 4.17D-09 XBig12= 9.14D-09 1.61D-05.
     16 vectors produced by pass  6 Test12= 6.82D-15 4.17D-09 XBig12= 4.20D-11 1.39D-06.
      5 vectors produced by pass  7 Test12= 6.82D-15 4.17D-09 XBig12= 1.03D-13 5.41D-08.
 InvSVY:  IOpt=1 It=  1 EMax= 1.11D-15
 Solved reduced A of dimension   129 with    18 vectors.
 End of Minotr F.D. properties file   721 does not exist.
 End of Minotr F.D. properties file   722 does not exist.
 End of Minotr F.D. properties file   788 does not exist.

 **********************************************************************

            Population analysis using the SCF density.

 **********************************************************************

 Orbital symmetries:
       Occupied  (A) (A) (A) (A) (A) (A) (A) (A) (A) (A) (A) (A)
                 (A) (A) (A) (A) (A) (A)
       Virtual   (A) (A) (A) (A) (A) (A) (A) (A) (A) (A) (A) (A)
                 (A) (A) (A) (A) (A) (A) (A) (A) (A) (A) (A) (A)
                 (A) (A) (A) (A) (A) (A) (A) (A) (A) (A) (A) (A)
                 (A) (A) (A) (A) (A) (A) (A) (A) (A) (A) (A) (A)
                 (A) (A) (A) (A) (A) (A) (A) (A) (A) (A) (A) (A)
                 (A) (A) (A) (A) (A) (A) (A) (A) (A) (A) (A) (A)
                 (A) (A) (A) (A) (A) (A) (A) (A) (A) (A) (A) (A)
                 (A) (A) (A) (A) (A) (A) (A)
 The electronic state is 1-A.
 Alpha  occ. eigenvalues -- -100.97234 -18.69012  -9.93475  -9.19278  -6.89770
 Alpha  occ. eigenvalues --   -6.89165  -6.89165  -0.64692  -0.57943  -0.45438
 Alpha  occ. eigenvalues --   -0.22352  -0.22229  -0.15872  -0.11983  -0.08430
 Alpha  occ. eigenvalues --   -0.08321   0.01015   0.01690
 Alpha virt. eigenvalues --    0.12164   0.13785   0.14117   0.14498   0.15479
 Alpha virt. eigenvalues --    0.19350   0.23401   0.24294   0.24696   0.24847
 Alpha virt. eigenvalues --    0.25349   0.25757   0.30960   0.31156   0.31335
 Alpha virt. eigenvalues --    0.34771   0.37148   0.37496   0.40880   0.42074
 Alpha virt. eigenvalues --    0.44685   0.45268   0.48729   0.48893   0.49745
 Alpha virt. eigenvalues --    0.50501   0.51232   0.53715   0.57369   0.59108
 Alpha virt. eigenvalues --    0.59778   0.62755   0.63471   0.63518   0.65733
 Alpha virt. eigenvalues --    0.66886   0.67265   0.72720   0.73685   0.74512
 Alpha virt. eigenvalues --    0.79470   0.79673   0.83601   0.95935   0.99410
 Alpha virt. eigenvalues --    1.00614   1.04868   1.05318   1.07607   1.11012
 Alpha virt. eigenvalues --    1.18536   1.18576   1.20954   1.24209   1.28497
 Alpha virt. eigenvalues --    1.34085   1.34201   1.36862   1.37491   1.41554
 Alpha virt. eigenvalues --    1.43186   1.45943   1.51606   1.53979   1.62937
 Alpha virt. eigenvalues --    1.66151   1.70355   1.73481   1.80638   1.84885
 Alpha virt. eigenvalues --    1.92791   1.93130   2.02836   2.12635   2.16384
 Alpha virt. eigenvalues --    2.18566   2.29122   2.31995   2.41248   2.43889
 Alpha virt. eigenvalues --    2.47076   2.67446   2.80961   2.81043   2.82111
 Alpha virt. eigenvalues --    2.94843   3.63315   3.64163   3.66105   3.76524
 Alpha virt. eigenvalues --    4.14566
          Condensed to atoms (all electrons):
               1          2          3          4          5          6
     1  Cl  17.917263   0.032592  -0.122712  -0.122711  -0.125804   0.046808
     2  C    0.032592   4.480553   0.329642   0.329642   0.398338  -0.085443
     3  H   -0.122712   0.329642   1.136188  -0.155332  -0.136660  -0.009710
     4  H   -0.122711   0.329642  -0.155332   1.136187  -0.136660  -0.009710
     5  H   -0.125804   0.398338  -0.136660  -0.136660   1.049016  -0.039833
     6  O    0.046808  -0.085443  -0.009710  -0.009710  -0.039833   8.560231
     7  H   -0.001258   0.027462   0.001791   0.001791   0.008341   0.163251
               7
     1  Cl  -0.001258
     2  C    0.027462
     3  H    0.001791
     4  H    0.001791
     5  H    0.008341
     6  O    0.163251
     7  H    0.932914
 Mulliken charges:
               1
     1  Cl  -0.624178
     2  C    0.487214
     3  H   -0.043207
     4  H   -0.043207
     5  H   -0.016736
     6  O   -0.625593
     7  H   -0.134292
 Sum of Mulliken charges =  -1.00000
 Mulliken charges with hydrogens summed into heavy atoms:
               1
     1  Cl  -0.624178
     2  C    0.384063
     6  O   -0.759885
 APT charges:
               1
     1  Cl  -0.617379
     2  C   -0.370667
     3  H    0.260788
     4  H    0.260788
     5  H    0.274190
     6  O   -1.082278
     7  H    0.274559
 Sum of APT charges =  -1.00000
 APT charges with hydrogens summed into heavy atoms:
               1
     1  Cl  -0.617379
     2  C    0.425099
     6  O   -0.807720
 Electronic spatial extent (au):  <R**2>=            508.0752
 Charge=             -1.0000 electrons
 Dipole moment (field-independent basis, Debye):
    X=             -3.4124    Y=             -1.2354    Z=              0.0001  Tot=              3.6291
 Quadrupole moment (field-independent basis, Debye-Ang):
   XX=            -61.3051   YY=            -28.4570   ZZ=            -30.1107
   XY=             -4.1430   XZ=              0.0003   YZ=             -0.0001
 Traceless Quadrupole moment (field-independent basis, Debye-Ang):
   XX=            -21.3475   YY=             11.5006   ZZ=              9.8469
   XY=             -4.1430   XZ=              0.0003   YZ=             -0.0001
 Octapole moment (field-independent basis, Debye-Ang**2):
  XXX=            -51.0582  YYY=              0.1998  ZZZ=              0.0002  XYY=              3.1897
  XXY=            -13.0831  XXZ=              0.0008  XZZ=             -1.6584  YZZ=             -1.0034
  YYZ=             -0.0001  XYZ=             -0.0002
 Hexadecapole moment (field-independent basis, Debye-Ang**3):
 XXXX=           -811.9670 YYYY=            -44.5217 ZZZZ=            -45.1732 XXXY=            -41.9416
 XXXZ=              0.0040 YYYX=             -2.4834 YYYZ=             -0.0000 ZZZX=              0.0016
 ZZZY=              0.0000 XXYY=           -108.2639 XXZZ=           -121.9932 YYZZ=            -15.0885
 XXYZ=             -0.0004 YYXZ=              0.0005 ZZXY=             -1.0331
 N-N= 8.839397560810D+01 E-N=-1.551111686562D+03  KE= 5.744009807570D+02
  Exact polarizability:   0.000   0.000   0.000   0.000   0.000   0.000
 Approx polarizability: 189.307   2.124  64.072  -0.001  -0.000  62.998
 Calling FoFJK, ICntrl=    100547 FMM=F ISym2X=0 I1Cent= 0 IOpClX= 0 NMat=1 NMatS=1 NMatT=0.
 ***** Axes restored to original set *****
 -------------------------------------------------------------------
 Center     Atomic                   Forces (Hartrees/Bohr)
 Number     Number              X              Y              Z
 -------------------------------------------------------------------
      1       17          -0.011313260    0.000093017    0.000000030
      2        6           0.011831590   -0.000312542   -0.000000132
      3        1           0.000255394    0.001283570   -0.002299108
      4        1           0.000255355    0.001283797    0.002299063
      5        1          -0.000315708   -0.003154880    0.000000179
      6        8           0.004651830   -0.005652490    0.000000254
      7        1          -0.005365202    0.006459529   -0.000000287
 -------------------------------------------------------------------
 Cartesian Forces:  Max     0.011831590 RMS     0.004452043
 FormGI is forming the generalized inverse of G from B-inverse, IUseBI=4.

 GradGradGradGradGradGradGradGradGradGradGradGradGradGradGradGradGradGrad
 Berny optimization.
 Internal  Forces:  Max     0.009650884 RMS     0.002772833
 Search for a saddle point.
 Step number   1 out of a maximum of   37
 All quantities printed in internal units (Hartrees-Bohrs-Radians)
 Second derivative matrix not updated -- analytic derivatives used.
 ITU=  0
 LST/QST climbing along tangent vector
     Eigenvalues ---   -0.00770  -0.00003   0.00407   0.00548   0.02695
     Eigenvalues ---    0.03054   0.03414   0.05451   0.06393   0.07242
     Eigenvalues ---    0.09238   0.28459   0.34207   0.37627   0.45550
     Eigenvalues --- 1000.000001000.000001000.000001000.000001000.00000
     Eigenvalues --- 1000.000001000.000001000.000001000.000001000.00000
     Eigenvalues --- 1000.000001000.00000
 Eigenvectors required to have negative eigenvalues:
                          D1        R6        R1        R7        A3
   1                    0.55411   0.50570  -0.42919   0.26355   0.21525
                          A1        A9        A6        A4        A8
   1                    0.17788  -0.16792  -0.16759  -0.12944  -0.09756
 QST in optimization variable space.
 Eigenvectors 1 and   7 swapped, overlap=  1.0000
                        Tangent   TS vect  // Eig F  Eigenval
   1         R1        -0.31019  -0.31019  -0.00362   0.03414
   2         R2         0.09752   0.09752  -0.00004  -0.00003
   3         R3        -0.05179  -0.05179  -0.00061   0.00407
   4         R4        -0.02885  -0.02885   0.00024   0.00548
   5         R5         0.00748   0.00748  -0.00023   0.02695
   6         R6         0.31616   0.31616   0.00300   0.03054
   7         R7        -0.31132  -0.31132  -0.00245  -0.00770
   8         R8         0.05182   0.05182  -0.00084   0.05451
   9         A1         0.02433   0.02433   0.00025   0.06393
  10         A2         0.37500   0.37500  -0.00020   0.07242
  11         A3        -0.23593  -0.23593   0.00273   0.09238
  12         A4         0.22700   0.22700  -0.00085   0.28459
  13         A5        -0.06388  -0.06388  -0.00124   0.34207
  14         A6         0.01292   0.01292  -0.00140   0.37627
  15         A7        -0.25225  -0.25225  -0.00454   0.45550
  16         A8        -0.30268  -0.30268  -0.000001000.00000
  17         A9         0.10813   0.10813   0.000001000.00000
  18         A10       -0.32166  -0.32166   0.000001000.00000
  19         A11        0.13265   0.13265   0.000001000.00000
  20         A12       -0.00696  -0.00696  -0.000001000.00000
  21         A13        0.04100   0.04100   0.000001000.00000
  22         A14       -0.06873  -0.06873   0.000001000.00000
  23         A15        0.01521   0.01521   0.000001000.00000
  24         D1        -0.31073  -0.31073  -0.000001000.00000
  25         D2         0.15654   0.15654   0.000001000.00000
  26         D3        -0.14125  -0.14125  -0.000001000.00000
  27         D4         0.05288   0.05288   0.000001000.00000
 RFO step:  Lambda0=3.451781585D-02 Lambda=-3.38151820D-05.
 Linear search not attempted -- option 19 set.
 Maximum step size (   0.300) exceeded in Quadratic search.
    -- Step size scaled by   0.032
 Iteration  1 RMS(Cart)=  0.05275923 RMS(Int)=  0.00292117
 Iteration  2 RMS(Cart)=  0.00184931 RMS(Int)=  0.00173921
 Iteration  3 RMS(Cart)=  0.00000456 RMS(Int)=  0.00173920
 Iteration  4 RMS(Cart)=  0.00000001 RMS(Int)=  0.00173920
 Variable       Old X    -DE/DX   Delta X   Delta X   Delta X     New X
                                 (Linear)    (Quad)   (Total)
    R1        3.88587   0.00965   0.00000  -0.08144  -0.08104   3.80483
    R2        8.95624   0.00129   0.00000   0.01907   0.01782   8.97406
    R3        2.04750  -0.00333   0.00000  -0.01614  -0.01625   2.03125
    R4        2.04750  -0.00126   0.00000  -0.00917  -0.00581   2.04169
    R5        2.04867  -0.00316   0.00000   0.00213   0.00213   2.05080
    R6        4.22732  -0.00088   0.00000   0.08372   0.08524   4.31257
    R7        4.45784  -0.00114   0.00000  -0.12037  -0.12153   4.33631
    R8        1.83640  -0.00821   0.00000   0.01563   0.01641   1.85281
    A1        1.72978   0.00070   0.00000   0.00141   0.00001   1.72979
    A2        1.72978   0.00024   0.00000   0.11406   0.11322   1.84299
    A3        1.74088  -0.00008   0.00000  -0.07604  -0.07635   1.66453
    A4        2.06131  -0.00001   0.00000   0.07246   0.06998   2.13128
    A5        2.04365  -0.00022   0.00000  -0.01842  -0.01992   2.02373
    A6        1.44394  -0.00045   0.00000   0.01261   0.01230   1.45624
    A7        2.04365  -0.00024   0.00000  -0.07560  -0.07538   1.96827
    A8        1.44394   0.00004   0.00000  -0.09957  -0.10013   1.34380
    A9        1.33637  -0.00046   0.00000   0.04186   0.04181   1.37818
   A10        3.15135   0.00200   0.00000  -0.09011  -0.08524   3.06612
   A11        0.06496   0.00059   0.00000   0.03954   0.04327   0.10823
   A12        1.92138  -0.00211   0.00000  -0.00747  -0.00859   1.91279
   A13        1.66164  -0.00178   0.00000   0.04437   0.04719   1.70883
   A14        1.47076   0.00272   0.00000   0.00419   0.00407   1.47483
   A15        5.10110  -0.00043   0.00000   0.08269   0.08341   5.18450
    D1        3.14159  -0.00029   0.00000  -0.10455  -0.10530   3.03629
    D2        1.04432  -0.00007   0.00000  -0.05192  -0.05054   0.99378
    D3       -1.04432  -0.00015   0.00000  -0.14576  -0.14625  -1.19057
    D4       -3.14159  -0.00002   0.00000  -0.08798  -0.08633   3.05526
         Item               Value     Threshold  Converged?
 Maximum Force            0.009651     0.000015     NO 
 RMS     Force            0.002773     0.000010     NO 
 Maximum Displacement     0.145379     0.000060     NO 
 RMS     Displacement     0.052876     0.000040     NO 
 Predicted change in Energy= 2.626980D-03
 GradGradGradGradGradGradGradGradGradGradGradGradGradGradGradGradGradGrad

                          Input orientation:                          
 ---------------------------------------------------------------------
 Center     Atomic      Atomic             Coordinates (Angstroms)
 Number     Number       Type             X           Y           Z
 ---------------------------------------------------------------------
      1         17           0       -1.638462    0.026145    0.033278
      2          6           0        0.373396   -0.044213   -0.003921
      3          1           0        0.543855   -0.536998    0.936026
      4          1           0        0.630603   -0.502769   -0.947779
      5          1           0        0.512614    1.032052   -0.008001
      6          8           0        2.650525    0.101590   -0.042122
      7          1           0        3.038764   -0.795634    0.032526
 ---------------------------------------------------------------------
                    Distance matrix (angstroms):
                    1          2          3          4          5
     1  Cl   0.000000
     2  C    2.013432   0.000000
     3  H    2.427879   1.074892   0.000000
     4  H    2.528019   1.080416   1.886112   0.000000
     5  H    2.375012   1.085239   1.831415   1.803546   0.000000
     6  O    4.290313   2.282112   2.408864   2.294678   2.331864
     7  H    4.748870   2.769503   2.666041   2.616487   3.118255
                    6          7
     6  O    0.000000
     7  H    0.980465   0.000000
 Stoichiometry    CH4ClO(1-)
 Framework group  C1[X(CH4ClO)]
 Deg. of freedom    15
 Full point group                 C1      NOp   1
 Largest Abelian subgroup         C1      NOp   1
 Largest concise Abelian subgroup C1      NOp   1
                         Standard orientation:                         
 ---------------------------------------------------------------------
 Center     Atomic      Atomic             Coordinates (Angstroms)
 Number     Number       Type             X           Y           Z
 ---------------------------------------------------------------------
      1         17           0       -1.647856    0.003254    0.000567
      2          6           0        0.364974   -0.044353   -0.011917
      3          1           0        0.525193   -0.689244    0.832973
      4          1           0        0.642481   -0.332841   -1.015442
      5          1           0        0.492832    1.017799    0.170372
      6          8           0        2.640751    0.123209    0.016297
      7          1           0        3.037195   -0.770580   -0.056412
 ---------------------------------------------------------------------
 Rotational constants (GHZ):    119.2200937      2.3018993      2.2947197
 Standard basis: Aug-CC-pVDZ (5D, 7F)
 There are   115 symmetry adapted cartesian basis functions of A   symmetry.
 There are   109 symmetry adapted basis functions of A   symmetry.
   109 basis functions,   211 primitive gaussians,   115 cartesian basis functions
    18 alpha electrons       18 beta electrons
       nuclear repulsion energy        88.7923716305 Hartrees.
 NAtoms=    7 NActive=    7 NUniq=    7 SFac= 1.00D+00 NAtFMM=   60 NAOKFM=F Big=F
 Integral buffers will be    131072 words long.
 Raffenetti 2 integral format.
 Two-electron integral symmetry is turned on.
 One-electron integrals computed using PRISM.
 NBasis=   109 RedAO= T EigKep=  5.78D-04  NBF=   109
 NBsUse=   109 1.00D-06 EigRej= -1.00D+00 NBFU=   109
 Initial guess from the checkpoint file:  "/localscratch/rjackson.18103347.0/Gau-115267.chk"
 B after Tr=    -0.000000   -0.000000    0.000000
         Rot=    0.996661   -0.081643    0.001032   -0.000949 Ang=  -9.37 deg.
 ExpMin= 2.97D-02 ExpMax= 1.28D+05 ExpMxC= 1.24D+03 IAcc=3 IRadAn=         5 AccDes= 0.00D+00
 Harris functional with IExCor= 1009 and IRadAn=       5 diagonalized for initial guess.
 HarFok:  IExCor= 1009 AccDes= 0.00D+00 IRadAn=         5 IDoV= 1 UseB2=F ITyADJ=14
 ICtDFT=  3500011 ScaDFX=  1.000000  1.000000  1.000000  1.000000
 FoFCou: FMM=F IPFlag=           0 FMFlag=      100000 FMFlg1=           0
         NFxFlg=           0 DoJE=T BraDBF=F KetDBF=T FulRan=T
         wScrn=  0.000000 ICntrl=     500 IOpCl=  0 I1Cent=   200000004 NGrid=           0
         NMat0=    1 NMatS0=      1 NMatT0=    0 NMatD0=    1 NMtDS0=    0 NMtDT0=    0
 Petite list used in FoFCou.
 Keep J ints in memory in canonical form, NReq=19025443.
 Requested convergence on RMS density matrix=1.00D-08 within 256 cycles.
 Requested convergence on MAX density matrix=1.00D-06.
 Requested convergence on             energy=1.00D-06.
 No special actions if energy rises.
