 Entering Gaussian System, Link 0=g09
 Initial command:
 /opt/software/gaussian/g09.e01/l1.exe "/localscratch/rjackson.12067818.0/Gau-8783.inp" -scrdir="/localscratch/rjackson.12067818.0/"
 Entering Link 1 = /opt/software/gaussian/g09.e01/l1.exe PID=      8784.
  
 Copyright (c) 1988,1990,1992,1993,1995,1998,2003,2009,2015,
            Gaussian, Inc.  All Rights Reserved.
  
 This is part of the Gaussian(R) 09 program.  It is based on
 the Gaussian(R) 03 system (copyright 2003, Gaussian, Inc.),
 the Gaussian(R) 98 system (copyright 1998, Gaussian, Inc.),
 the Gaussian(R) 94 system (copyright 1995, Gaussian, Inc.),
 the Gaussian 92(TM) system (copyright 1992, Gaussian, Inc.),
 the Gaussian 90(TM) system (copyright 1990, Gaussian, Inc.),
 the Gaussian 88(TM) system (copyright 1988, Gaussian, Inc.),
 the Gaussian 86(TM) system (copyright 1986, Carnegie Mellon
 University), and the Gaussian 82(TM) system (copyright 1983,
 Carnegie Mellon University). Gaussian is a federally registered
 trademark of Gaussian, Inc.
  
 This software contains proprietary and confidential information,
 including trade secrets, belonging to Gaussian, Inc.
  
 This software is provided under written license and may be
 used, copied, transmitted, or stored only in accord with that
 written license.
  
 The following legend is applicable only to US Government
 contracts under FAR:
  
                    RESTRICTED RIGHTS LEGEND
  
 Use, reproduction and disclosure by the US Government is
 subject to restrictions as set forth in subparagraphs (a)
 and (c) of the Commercial Computer Software - Restricted
 Rights clause in FAR 52.227-19.
  
 Gaussian, Inc.
 340 Quinnipiac St., Bldg. 40, Wallingford CT 06492
  
  
 ---------------------------------------------------------------
 Warning -- This program may not be used in any manner that
 competes with the business of Gaussian, Inc. or will provide
 assistance to any competitor of Gaussian, Inc.  The licensee
 of this program is prohibited from giving any competitor of
 Gaussian, Inc. access to this program.  By using this program,
 the user acknowledges that Gaussian, Inc. is engaged in the
 business of creating and licensing software in the field of
 computational chemistry and represents and warrants to the
 licensee that it is not a competitor of Gaussian, Inc. and that
 it will not use this program in any manner prohibited above.
 ---------------------------------------------------------------
  

 Cite this work as:
 Gaussian 09, Revision E.01,
 M. J. Frisch, G. W. Trucks, H. B. Schlegel, G. E. Scuseria, 
 M. A. Robb, J. R. Cheeseman, G. Scalmani, V. Barone, B. Mennucci, 
 G. A. Petersson, H. Nakatsuji, M. Caricato, X. Li, H. P. Hratchian, 
 A. F. Izmaylov, J. Bloino, G. Zheng, J. L. Sonnenberg, M. Hada, 
 M. Ehara, K. Toyota, R. Fukuda, J. Hasegawa, M. Ishida, T. Nakajima, 
 Y. Honda, O. Kitao, H. Nakai, T. Vreven, J. A. Montgomery, Jr., 
 J. E. Peralta, F. Ogliaro, M. Bearpark, J. J. Heyd, E. Brothers, 
 K. N. Kudin, V. N. Staroverov, T. Keith, R. Kobayashi, J. Normand, 
 K. Raghavachari, A. Rendell, J. C. Burant, S. S. Iyengar, J. Tomasi, 
 M. Cossi, N. Rega, J. M. Millam, M. Klene, J. E. Knox, J. B. Cross, 
 V. Bakken, C. Adamo, J. Jaramillo, R. Gomperts, R. E. Stratmann, 
 O. Yazyev, A. J. Austin, R. Cammi, C. Pomelli, J. W. Ochterski, 
 R. L. Martin, K. Morokuma, V. G. Zakrzewski, G. A. Voth, 
 P. Salvador, J. J. Dannenberg, S. Dapprich, A. D. Daniels, 
 O. Farkas, J. B. Foresman, J. V. Ortiz, J. Cioslowski, 
 and D. J. Fox, Gaussian, Inc., Wallingford CT, 2013.
 
 ******************************************
 Gaussian 09:  EM64L-G09RevE.01 30-Nov-2015
                26-Feb-2019 
 ******************************************
 ----------------------------------------------------------------------
 # MP2/cc-pVDZ irc(forward, calcfc, maxpoints=64, stepsize=5, tight) in
 tegral(grid=superfine) scf(maxcyc=256)
 ----------------------------------------------------------------------
 1/7=10,10=4,18=10,22=1,38=1,39=5,42=64,44=3/1,23;
 2/12=2,17=6,18=5,29=1,40=1/2;
 3/5=16,11=9,16=1,25=1,30=1,71=2,75=-7,140=1/1,2,3;
 4//1;
 5/5=2,7=256,38=5/2;
 8/6=3,8=1,10=1,19=11,30=-1/1;
 9/15=3,16=-3/6;
 11/6=1,8=1,15=11,17=12,24=-1,27=1,28=-2,29=300,32=6,42=3/1,2,10;
 10/6=2,21=1/2;
 8/6=4,8=1,10=1,19=11,30=-1/11,4;
 10/5=1,20=4/2;
 11/12=2,14=11,16=1,17=2,28=-2,42=3/2,10,12;
 6/7=2,8=2,9=2,10=2/1;
 7/10=1,12=2,25=1,44=2/1,2,3,16;
 1/7=10,10=4,18=10,22=1,39=5,42=64,44=3/23(2);
 2/29=1/2;
 99/5=20/99;
 2/29=1/2;
 3/5=16,11=9,16=1,25=1,30=1,71=2,75=-7,140=1/1,2,3;
 4/5=5,16=3,69=1/1;
 5/5=2,7=256,38=5/2;
 8/6=3,8=1,10=1,19=11,30=-1/1;
 9/15=3,16=-3/6;
 11/6=1,8=1,15=11,17=12,24=-1,27=1,28=-2,29=300,32=6,42=3/1,2,10;
 10/6=2,21=1/2;
 8/6=4,8=1,10=1,19=11,30=-1/11,4;
 10/5=1,20=4/2;
 11/12=2,14=11,16=1,17=2,28=-2,42=3/2,10,12;
 7/10=1,12=2,25=1,44=2/1,2,3,16;
 1/7=10,18=10,22=1,39=5,42=64,44=3/23(-12);
 2/29=1/2;
 6/7=2,8=2,9=2,10=2/1;
 99/5=20/99;
 ------------------------
 OH-chloroform_ts_product
 ------------------------
 Symbolic Z-matrix:
 Charge = -1 Multiplicity = 1
 Cl                   -1.45503  -0.16549  -0.10232 
 C                     0.17411   0.46701   0.64554 
 H                     0.10062   0.03336   1.67441 
 H                     1.79823   0.19658  -0.147 
 H                    -0.08773   1.54073   0.81415 
 O                     2.76046  -0.04171  -0.4071 
 H                     2.77723  -0.92504  -0.01653 
 
 IRC-IRC-IRC-IRC-IRC-IRC-IRC-IRC-IRC-IRC-IRC-IRC-IRC-IRC-IRC-IRC-IRC-IRC
 ------------------------------------------------------------------------
 INPUT DATA FOR L123
 ------------------------------------------------------------------------
 GENERAL PARAMETERS:
 Rxn path following direction = Forward
 Maximum points per path      =  64
 Step size                    =   0.050 bohr
 Integration scheme           = HPC                                 
    Redo corrector integration= Yes                                 
    DWI Weight Power          =  2
    DWI will use Hessian update vectors when possible.
    Max correction cycles     =  20
 Initial Hessian              = CalcFC
 Hessian evaluation           = All updating
 Hessian updating method      = Bofill                              
 ------------------------------------------------------------------------
 IRC-IRC-IRC-IRC-IRC-IRC-IRC-IRC-IRC-IRC-IRC-IRC-IRC-IRC-IRC-IRC-IRC-IRC
                          Input orientation:                          
 ---------------------------------------------------------------------
 Center     Atomic      Atomic             Coordinates (Angstroms)
 Number     Number       Type             X           Y           Z
 ---------------------------------------------------------------------
      1         17           0       -1.455030   -0.165494   -0.102319
      2          6           0        0.174112    0.467009    0.645538
      3          1           0        0.100619    0.033357    1.674411
      4          1           0        1.798229    0.196577   -0.146999
      5          1           0       -0.087727    1.540732    0.814153
      6          8           0        2.760464   -0.041705   -0.407097
      7          1           0        2.777231   -0.925041   -0.016532
 ---------------------------------------------------------------------
                    Distance matrix (angstroms):
                    1          2          3          4          5
     1  Cl   0.000000
     2  C    1.900909   0.000000
     3  H    2.369885   1.118944   0.000000
     4  H    3.273650   1.827294   2.495206   0.000000
     5  H    2.370790   1.117977   1.745766   2.507468   0.000000
     6  O    4.228310   2.838318   3.378326   1.024854   3.479619
     7  H    4.300733   3.025288   3.307879   1.494488   3.870150
                    6          7
     6  O    0.000000
     7  H    0.965973   0.000000
 Symmetry turned off by external request.
 Stoichiometry    CH4ClO(1-)
 Framework group  C1[X(CH4ClO)]
 Deg. of freedom    15
 Full point group                 C1      NOp   1
 Rotational constants (GHZ):     28.6732148      2.4004431      2.2625989
 Standard basis: CC-pVDZ (5D, 7F)
    66 basis functions,   165 primitive gaussians,    69 cartesian basis functions
    18 alpha electrons       18 beta electrons
       nuclear repulsion energy        87.6195113814 Hartrees.
 NAtoms=    7 NActive=    7 NUniq=    7 SFac= 1.00D+00 NAtFMM=   60 NAOKFM=F Big=F
 Integral buffers will be    131072 words long.
 Raffenetti 1 integral format.
 Two-electron integral symmetry is turned off.
 One-electron integrals computed using PRISM.
 NBasis=    66 RedAO= T EigKep=  1.93D-02  NBF=    66
 NBsUse=    66 1.00D-06 EigRej= -1.00D+00 NBFU=    66
 ExpMin= 1.22D-01 ExpMax= 1.28D+05 ExpMxC= 1.24D+03 IAcc=3 IRadAn=         7 AccDes= 0.00D+00
 Harris functional with IExCor=  205 and IRadAn=       7 diagonalized for initial guess.
 HarFok:  IExCor=  205 AccDes= 0.00D+00 IRadAn=         7 IDoV= 1 UseB2=F ITyADJ=14
 ICtDFT=  3500011 ScaDFX=  1.000000  1.000000  1.000000  1.000000
 FoFCou: FMM=F IPFlag=           0 FMFlag=      100000 FMFlg1=           0
         NFxFlg=           0 DoJE=T BraDBF=F KetDBF=T FulRan=T
         wScrn=  0.000000 ICntrl=     500 IOpCl=  0 I1Cent=   200000004 NGrid=           0
         NMat0=    1 NMatS0=      1 NMatT0=    0 NMatD0=    1 NMtDS0=    0 NMtDT0=    0
 Symmetry not used in FoFCou.
 Keep R1 ints in memory in canonical form, NReq=3410978.
 Requested convergence on RMS density matrix=1.00D-08 within 256 cycles.
 Requested convergence on MAX density matrix=1.00D-06.
 Requested convergence on             energy=1.00D-06.
 No special actions if energy rises.
 SCF Done:  E(RHF) =  -574.507696540     A.U. after   13 cycles
            NFock= 13  Conv=0.37D-08     -V/T= 2.0000
 ExpMin= 1.22D-01 ExpMax= 1.28D+05 ExpMxC= 1.24D+03 IAcc=3 IRadAn=         7 AccDes= 0.00D+00
 HarFok:  IExCor=  205 AccDes= 0.00D+00 IRadAn=         7 IDoV=-2 UseB2=F ITyADJ=14
 ICtDFT= 12500011 ScaDFX=  1.000000  1.000000  1.000000  1.000000
 Range of M.O.s used for correlation:     8    66
 NBasis=    66 NAE=    18 NBE=    18 NFC=     7 NFV=     0
 NROrb=     59 NOA=    11 NOB=    11 NVA=    48 NVB=    48
 Disk-based method using ON**2 memory for 11 occupieds at a time.
 Permanent disk used for amplitudes=      919080 words.
 Estimated scratch disk usage=     7102772 words.
 Actual    scratch disk usage=     7102772 words.
 JobTyp=1 Pass  1:  I=   8 to  18 NPSUse=  1 ParTrn=F ParDer=F DoDerP=T.
 (rs|ai) integrals will be sorted in core.
 Spin components of T(2) and E(2):
     alpha-alpha T2 =       0.2036676775D-01 E2=     -0.6194914660D-01
     alpha-beta  T2 =       0.1203124210D+00 E2=     -0.3697432868D+00
     beta-beta   T2 =       0.2036676775D-01 E2=     -0.6194914660D-01
 ANorm=    0.1077518425D+01
 E2 =    -0.4936415800D+00 EUMP2 =    -0.57500133812008D+03
 G2DrvN: will do     8 centers at a time, making    1 passes.
 Calling FoFCou, ICntrl=  3107 FMM=F I1Cent=   0 AccDes= 0.00D+00.
 End of G2Drv F.D. properties file   721 does not exist.
 End of G2Drv F.D. properties file   722 does not exist.
 End of G2Drv F.D. properties file   788 does not exist.
          IDoAtm=1111111
          Differentiating once with respect to electric field.
                with respect to dipole field.
          Differentiating once with respect to nuclear coordinates.
 Keep R1 ints in memory in canonical form, NReq=3351303.
          There are    24 degrees of freedom in the 1st order CPHF.  IDoFFX=6 NUNeed=    24.
     21 vectors produced by pass  0 Test12= 3.60D-15 4.17D-09 XBig12= 1.01D+01 1.28D+00.
 AX will form    21 AO Fock derivatives at one time.
     21 vectors produced by pass  1 Test12= 3.60D-15 4.17D-09 XBig12= 7.28D-01 3.06D-01.
     21 vectors produced by pass  2 Test12= 3.60D-15 4.17D-09 XBig12= 2.85D-02 4.05D-02.
     21 vectors produced by pass  3 Test12= 3.60D-15 4.17D-09 XBig12= 2.34D-04 3.67D-03.
     21 vectors produced by pass  4 Test12= 3.60D-15 4.17D-09 XBig12= 1.61D-06 2.22D-04.
     21 vectors produced by pass  5 Test12= 3.60D-15 4.17D-09 XBig12= 7.32D-09 1.56D-05.
     14 vectors produced by pass  6 Test12= 3.60D-15 4.17D-09 XBig12= 4.57D-11 1.81D-06.
      3 vectors produced by pass  7 Test12= 3.60D-15 4.17D-09 XBig12= 2.16D-13 9.92D-08.
      1 vectors produced by pass  8 Test12= 3.60D-15 4.17D-09 XBig12= 1.39D-15 7.00D-09.
 InvSVY:  IOpt=1 It=  1 EMax= 1.78D-15
 Solved reduced A of dimension   144 with    24 vectors.
 End of Minotr F.D. properties file   721 does not exist.
 End of Minotr F.D. properties file   722 does not exist.
 End of Minotr F.D. properties file   788 does not exist.
 MDV=    33554432.
 Form MO integral derivatives with frozen-active canonical formalism.
 Discarding MO integrals.
 Reordered first order wavefunction length =      1492992
 In DefCFB: NBatch=  1 ICI= 18 ICA= 48 LFMax= 18
            Large arrays: LIAPS=    15738624 LIARS=     7928928 words.
 Semi-Direct transformation.
 ModeAB=           2 MOrb=            18 LenV=      33289318
 LASXX=      2037645 LTotXX=     2037645 LenRXX=     2037645
 LTotAB=     2140641 MaxLAS=     2869020 LenRXY=     2869020
 NonZer=     4075290 LenScr=     6875136 LnRSAI=           0
 LnScr1=           0 LExtra=           0 Total=     11781801
 MaxDsk=          -1 SrtSym=           F ITran=            4
 JobTyp=0 Pass  1:  I=   1 to  18.
 (rs|ai) integrals will be sorted in core.
 Spin components of T(2) and E(2):
     alpha-alpha T2 =       0.2036676775D-01 E2=     -0.6194914660D-01
     alpha-beta  T2 =       0.1203124210D+00 E2=     -0.3697432868D+00
     beta-beta   T2 =       0.2036676775D-01 E2=     -0.6194914660D-01
 ANorm=    0.1523841171D+01
 E2 =    -0.4936415800D+00 EUMP2 =    -0.57500133812008D+03
          IDoAtm=1111111
          Differentiating once with respect to electric field.
                with respect to dipole field.
          Differentiating once with respect to nuclear coordinates.
          There are     1 degrees of freedom in the 1st order CPHF.  IDoFFX=0 NUNeed=     1.
 LinEq1:  Iter=  0 NonCon=     1 RMS=4.49D-03 Max=4.87D-02 NDo=     1
 LinEq1:  Iter=  1 NonCon=     1 RMS=1.28D-03 Max=1.36D-02 NDo=     1
 LinEq1:  Iter=  2 NonCon=     1 RMS=4.15D-04 Max=4.90D-03 NDo=     1
 LinEq1:  Iter=  3 NonCon=     1 RMS=7.25D-05 Max=5.84D-04 NDo=     1
 LinEq1:  Iter=  4 NonCon=     1 RMS=2.50D-05 Max=2.14D-04 NDo=     1
 LinEq1:  Iter=  5 NonCon=     1 RMS=7.62D-06 Max=5.71D-05 NDo=     1
 LinEq1:  Iter=  6 NonCon=     1 RMS=1.72D-06 Max=2.04D-05 NDo=     1
 LinEq1:  Iter=  7 NonCon=     1 RMS=4.01D-07 Max=6.93D-06 NDo=     1
 LinEq1:  Iter=  8 NonCon=     1 RMS=1.25D-07 Max=1.16D-06 NDo=     1
 LinEq1:  Iter=  9 NonCon=     1 RMS=2.88D-08 Max=3.57D-07 NDo=     1
 LinEq1:  Iter= 10 NonCon=     1 RMS=6.43D-09 Max=6.31D-08 NDo=     1
 LinEq1:  Iter= 11 NonCon=     1 RMS=1.30D-09 Max=8.52D-09 NDo=     1
 LinEq1:  Iter= 12 NonCon=     1 RMS=2.29D-10 Max=1.40D-09 NDo=     1
 LinEq1:  Iter= 13 NonCon=     0 RMS=5.36D-11 Max=3.24D-10 NDo=     1
 Linear equations converged to 1.000D-10 1.000D-09 after    13 iterations.
 End of Minotr F.D. properties file   721 does not exist.
 End of Minotr F.D. properties file   722 does not exist.
 End of Minotr F.D. properties file   788 does not exist.
 Symmetrizing basis deriv contribution to polar:
 IMax=3 JMax=2 DiffMx= 0.00D+00
 G2DrvN: will do     8 centers at a time, making    1 passes.
 Calling FoFCou, ICntrl=  3107 FMM=F I1Cent=   0 AccDes= 0.00D+00.
 End of G2Drv F.D. properties file   721 does not exist.
 End of G2Drv F.D. properties file   722 does not exist.
 End of G2Drv F.D. properties file   788 does not exist.
 R2 and R3 integrals will be kept in memory, NReq=     6654640.
 DD1Dir will call FoFMem   1 times, MxPair=       342
 NAB=   171 NAA=     0 NBB=     0.
 Discarding MO integrals.

 **********************************************************************

            Population analysis using the SCF density.

 **********************************************************************

 Alpha  occ. eigenvalues -- -104.58691 -20.32571 -11.02536 -10.31216  -7.77946
 Alpha  occ. eigenvalues --   -7.77717  -7.77701  -1.10392  -0.86296  -0.63242
 Alpha  occ. eigenvalues --   -0.45127  -0.36837  -0.33682  -0.28759  -0.27353
 Alpha  occ. eigenvalues --   -0.24289  -0.20757  -0.10646
 Alpha virt. eigenvalues --    0.36036   0.40130   0.43158   0.44742   0.58625
 Alpha virt. eigenvalues --    0.80972   0.86168   0.92537   0.93014   0.98394
 Alpha virt. eigenvalues --    0.99298   1.02144   1.05785   1.08239   1.08707
 Alpha virt. eigenvalues --    1.16981   1.17935   1.20772   1.23098   1.24847
 Alpha virt. eigenvalues --    1.39047   1.42314   1.45117   1.51542   1.55568
 Alpha virt. eigenvalues --    1.60035   1.62153   1.66903   1.75226   1.85382
 Alpha virt. eigenvalues --    1.93767   1.99539   2.16729   2.17984   2.22311
 Alpha virt. eigenvalues --    2.23969   2.35020   2.36272   2.56424   2.65662
 Alpha virt. eigenvalues --    2.82468   2.96079   2.98809   3.49213   3.52506
 Alpha virt. eigenvalues --    3.70124   4.03741   4.38893
          Condensed to atoms (all electrons):
               1          2          3          4          5          6
     1  Cl  17.430466   0.119365  -0.050985  -0.001670  -0.049924   0.000692
     2  C    0.119365   5.528543   0.373174   0.060472   0.375556  -0.060054
     3  H   -0.050985   0.373174   0.750517  -0.003129  -0.047452   0.001275
     4  H   -0.001670   0.060472  -0.003129   0.373605  -0.002978   0.366769
     5  H   -0.049924   0.375556  -0.047452  -0.002978   0.740869   0.001130
     6  O    0.000692  -0.060054   0.001275   0.366769   0.001130   7.801155
     7  H   -0.000505   0.018757  -0.000558  -0.057688  -0.000127   0.344964
               7
     1  Cl  -0.000505
     2  C    0.018757
     3  H   -0.000558
     4  H   -0.057688
     5  H   -0.000127
     6  O    0.344964
     7  H    0.600683
 Mulliken charges:
               1
     1  Cl  -0.447438
     2  C   -0.415812
     3  H   -0.022841
     4  H    0.264621
     5  H   -0.017073
     6  O   -0.455931
     7  H    0.094474
 Sum of Mulliken charges =  -1.00000
 Mulliken charges with hydrogens summed into heavy atoms:
               1
     1  Cl  -0.447438
     2  C   -0.455726
     6  O   -0.096836
 APT charges:
               1
     1  Cl  -0.634257
     2  C    0.060796
     3  H   -0.162525
     4  H    0.567456
     5  H   -0.164606
     6  O   -0.836059
     7  H    0.169194
 Sum of APT charges =  -1.00000
 APT charges with hydrogens summed into heavy atoms:
               1
     1  Cl  -0.634257
     2  C   -0.266334
     6  O   -0.099409
 Electronic spatial extent (au):  <R**2>=            510.6688
 Charge=             -1.0000 electrons
 Dipole moment (field-independent basis, Debye):
    X=             -1.5395    Y=             -1.0744    Z=              0.9691  Tot=              2.1127
 Quadrupole moment (field-independent basis, Debye-Ang):
   XX=            -48.6578   YY=            -28.0542   ZZ=            -30.6557
   XY=             -3.7497   XZ=              3.4388   YZ=             -0.5965
 Traceless Quadrupole moment (field-independent basis, Debye-Ang):
   XX=            -12.8685   YY=              7.7350   ZZ=              5.1335
   XY=             -3.7497   XZ=              3.4388   YZ=             -0.5965
 Octapole moment (field-independent basis, Debye-Ang**2):
  XXX=            -37.0915  YYY=             -5.5271  ZZZ=             -6.9808  XYY=              3.9323
  XXY=            -10.3223  XXZ=              8.3142  XZZ=             -2.4740  YZZ=             -1.6684
  YYZ=             -2.5507  XYZ=             -0.7469
 Hexadecapole moment (field-independent basis, Debye-Ang**3):
 XXXX=           -655.6224 YYYY=            -54.8887 ZZZZ=            -73.2539 XXXY=            -31.6079
 XXXZ=             45.5852 YYYX=             -9.7521 YYYZ=            -10.3528 ZZZX=             13.9374
 ZZZY=            -11.1503 XXYY=            -84.3748 XXZZ=           -104.9999 YYZZ=            -21.6147
 XXYZ=             -4.3411 YYXZ=              4.1008 ZZXY=             -0.8669
 N-N= 8.761951138142D+01 E-N=-1.549845633233D+03  KE= 5.745063511817D+02
  Exact polarizability:  44.917   1.216  28.401   2.663   1.435  26.778
 Approx polarizability:  31.710   2.011  24.679   2.966   0.292  22.774
 Calling FoFJK, ICntrl=  10100127 FMM=F ISym2X=0 I1Cent= 0 IOpClX= 0 NMat=1 NMatS=1 NMatT=0.
 -------------------------------------------------------------------
 Center     Atomic                   Forces (Hartrees/Bohr)
 Number     Number              X              Y              Z
 -------------------------------------------------------------------
      1       17           0.000444529   -0.000130921   -0.000153669
      2        6          -0.000074832    0.000209081    0.000226190
      3        1          -0.000016217    0.000018688    0.000016013
      4        1           0.000001270    0.000011288    0.000012986
      5        1          -0.000017534    0.000010463    0.000008091
      6        8          -0.000291473    0.000008063   -0.000070971
      7        1          -0.000045744   -0.000126662   -0.000038640
 -------------------------------------------------------------------
 Cartesian Forces:  Max     0.000444529 RMS     0.000146413
 IRC-IRC-IRC-IRC-IRC-IRC-IRC-IRC-IRC-IRC-IRC-IRC-IRC-IRC-IRC-IRC-IRC-IRC
          ******** Start new reaction path calculation ********
 WARNING: NO IMAGINARY FREQUENCIES AT TS!
 Supplied step size of   0.0500 bohr.
    Integration on MW PES will use step size of   0.0659 sqrt(amu)*bohr.
 Point Number:   0          Path Number:   1
 Calculating another point on the path.
 IRC-IRC-IRC-IRC-IRC-IRC-IRC-IRC-IRC-IRC-IRC-IRC-IRC-IRC-IRC-IRC-IRC-IRC
                          Input orientation:                          
 ---------------------------------------------------------------------
 Center     Atomic      Atomic             Coordinates (Angstroms)
 Number     Number       Type             X           Y           Z
 ---------------------------------------------------------------------
      1         17           0       -1.452756   -0.166266   -0.103015
      2          6           0        0.173247    0.470175    0.648524
      3          1           0        0.097916    0.037386    1.677602
      4          1           0        1.797709    0.198917   -0.143111
      5          1           0       -0.091143    1.543566    0.815284
      6          8           0        2.758109   -0.042507   -0.407128
      7          1           0        2.766276   -0.934545   -0.035873
 ---------------------------------------------------------------------
                    Distance matrix (angstroms):
                    1          2          3          4          5
     1  Cl   0.000000
     2  C    1.900988   0.000000
     3  H    2.369948   1.118920   0.000000
     4  H    3.271160   1.827332   2.496073   0.000000
     5  H    2.370820   1.117980   1.745827   2.508857   0.000000
     6  O    4.223646   2.838795   3.380697   1.024871   3.482551
     7  H    4.288938   3.027447   3.316744   1.494777   3.876899
                    6          7
     6  O    0.000000
     7  H    0.966245   0.000000
 Symmetry turned off by external request.
 Stoichiometry    CH4ClO(1-)
 Framework group  C1[X(CH4ClO)]
 Deg. of freedom    15
 Full point group                 C1      NOp   1
 Rotational constants (GHZ):     28.4547449      2.4062952      2.2662424
 Standard basis: CC-pVDZ (5D, 7F)
    66 basis functions,   165 primitive gaussians,    69 cartesian basis functions
    18 alpha electrons       18 beta electrons
       nuclear repulsion energy        87.6384466737 Hartrees.
 NAtoms=    7 NActive=    7 NUniq=    7 SFac= 1.00D+00 NAtFMM=   60 NAOKFM=F Big=F
 Integral buffers will be    131072 words long.
 Raffenetti 1 integral format.
 Two-electron integral symmetry is turned off.
 One-electron integrals computed using PRISM.
 NBasis=    66 RedAO= T EigKep=  1.93D-02  NBF=    66
 NBsUse=    66 1.00D-06 EigRej= -1.00D+00 NBFU=    66
 Initial guess from the checkpoint file:  "/localscratch/rjackson.12067818.0/Gau-8784.chk"
 B after Tr=    -0.000175    0.000014   -0.000273
         Rot=    1.000000   -0.000276   -0.000087    0.000074 Ang=  -0.03 deg.
 ExpMin= 1.22D-01 ExpMax= 1.28D+05 ExpMxC= 1.24D+03 IAcc=3 IRadAn=         5 AccDes= 0.00D+00
 Harris functional with IExCor=  205 and IRadAn=       5 diagonalized for initial guess.
 HarFok:  IExCor=  205 AccDes= 0.00D+00 IRadAn=         5 IDoV= 1 UseB2=F ITyADJ=14
 ICtDFT=  3500011 ScaDFX=  1.000000  1.000000  1.000000  1.000000
 FoFCou: FMM=F IPFlag=           0 FMFlag=      100000 FMFlg1=           0
         NFxFlg=           0 DoJE=T BraDBF=F KetDBF=T FulRan=T
         wScrn=  0.000000 ICntrl=     500 IOpCl=  0 I1Cent=   200000004 NGrid=           0
         NMat0=    1 NMatS0=      1 NMatT0=    0 NMatD0=    1 NMtDS0=    0 NMtDT0=    0
 Symmetry not used in FoFCou.
 Keep R1 ints in memory in canonical form, NReq=3410978.
 Requested convergence on RMS density matrix=1.00D-08 within 256 cycles.
 Requested convergence on MAX density matrix=1.00D-06.
 Requested convergence on             energy=1.00D-06.
 No special actions if energy rises.
 SCF Done:  E(RHF) =  -574.507713479     A.U. after   11 cycles
            NFock= 11  Conv=0.56D-08     -V/T= 2.0000
 ExpMin= 1.22D-01 ExpMax= 1.28D+05 ExpMxC= 1.24D+03 IAcc=3 IRadAn=         7 AccDes= 0.00D+00
 HarFok:  IExCor=  205 AccDes= 0.00D+00 IRadAn=         7 IDoV=-2 UseB2=F ITyADJ=14
 ICtDFT= 12500011 ScaDFX=  1.000000  1.000000  1.000000  1.000000
 Range of M.O.s used for correlation:     8    66
 NBasis=    66 NAE=    18 NBE=    18 NFC=     7 NFV=     0
 NROrb=     59 NOA=    11 NOB=    11 NVA=    48 NVB=    48
 Fully direct method using O(ONN) memory.
 JobTyp=1 Pass  1:  I=   8 to  18 NPSUse=  1 ParTrn=F ParDer=F DoDerP=T.
 Spin components of T(2) and E(2):
     alpha-alpha T2 =       0.2036580037D-01 E2=     -0.6194706287D-01
     alpha-beta  T2 =       0.1203128007D+00 E2=     -0.3697418701D+00
     beta-beta   T2 =       0.2036580037D-01 E2=     -0.6194706287D-01
 ANorm=    0.1077517704D+01
 E2 =    -0.4936359959D+00 EUMP2 =    -0.57500134947499D+03
          IDoAtm=1111111
          Differentiating once with respect to electric field.
                with respect to dipole field.
          Differentiating once with respect to nuclear coordinates.
 Keep R1 ints in memory in canonical form, NReq=3353197.
          There are     1 degrees of freedom in the 1st order CPHF.  IDoFFX=0 NUNeed=     1.
 LinEq1:  Iter=  0 NonCon=     1 RMS=4.49D-03 Max=4.85D-02 NDo=     1
 AX will form     1 AO Fock derivatives at one time.
 LinEq1:  Iter=  1 NonCon=     1 RMS=1.28D-03 Max=1.36D-02 NDo=     1
 LinEq1:  Iter=  2 NonCon=     1 RMS=4.15D-04 Max=4.89D-03 NDo=     1
 LinEq1:  Iter=  3 NonCon=     1 RMS=7.24D-05 Max=5.85D-04 NDo=     1
 LinEq1:  Iter=  4 NonCon=     1 RMS=2.49D-05 Max=2.15D-04 NDo=     1
 LinEq1:  Iter=  5 NonCon=     1 RMS=7.62D-06 Max=5.76D-05 NDo=     1
 LinEq1:  Iter=  6 NonCon=     1 RMS=1.72D-06 Max=2.06D-05 NDo=     1
 LinEq1:  Iter=  7 NonCon=     1 RMS=4.05D-07 Max=6.97D-06 NDo=     1
 LinEq1:  Iter=  8 NonCon=     1 RMS=1.26D-07 Max=1.17D-06 NDo=     1
 LinEq1:  Iter=  9 NonCon=     1 RMS=2.89D-08 Max=3.59D-07 NDo=     1
 LinEq1:  Iter= 10 NonCon=     1 RMS=6.45D-09 Max=6.30D-08 NDo=     1
 LinEq1:  Iter= 11 NonCon=     1 RMS=1.30D-09 Max=8.55D-09 NDo=     1
 LinEq1:  Iter= 12 NonCon=     1 RMS=2.30D-10 Max=1.41D-09 NDo=     1
 LinEq1:  Iter= 13 NonCon=     0 RMS=5.38D-11 Max=3.24D-10 NDo=     1
 Linear equations converged to 1.000D-10 1.000D-09 after    13 iterations.
 End of Minotr F.D. properties file   721 does not exist.
 End of Minotr F.D. properties file   722 does not exist.
 End of Minotr F.D. properties file   788 does not exist.
 Symmetrizing basis deriv contribution to polar:
 IMax=3 JMax=2 DiffMx= 0.00D+00
 Calling FoFJK, ICntrl=  10002127 FMM=F ISym2X=0 I1Cent= 0 IOpClX= 0 NMat=1 NMatS=1 NMatT=0.
 -------------------------------------------------------------------
 Center     Atomic                   Forces (Hartrees/Bohr)
 Number     Number              X              Y              Z
 -------------------------------------------------------------------
      1       17           0.000439890   -0.000126910   -0.000150657
      2        6          -0.000075010    0.000208968    0.000222751
      3        1          -0.000016085    0.000017728    0.000014224
      4        1           0.000007495   -0.000009422    0.000019539
      5        1          -0.000017457    0.000007869    0.000007728
      6        8          -0.000277326   -0.000230913    0.000025869
      7        1          -0.000061506    0.000132680   -0.000139454
 -------------------------------------------------------------------
 Cartesian Forces:  Max     0.000439890 RMS     0.000155024
 IRC-IRC-IRC-IRC-IRC-IRC-IRC-IRC-IRC-IRC-IRC-IRC-IRC-IRC-IRC-IRC-IRC-IRC
 Pt  1 Step number   1 out of a maximum of  20
 Modified Bulirsch-Stoer Extrapolation Cycles:
    EPS =    0.000000333333333
 Maximum DWI energy   std dev =  0.000000025 at pt    13
 Maximum DWI gradient std dev =  0.405673841 at pt    10
 CORRECTOR INTEGRATION CONVERGENCE:
   Recorrection delta-x convergence threshold:    0.001826
   Delta-x Convergence NOT Met
 IRC-IRC-IRC-IRC-IRC-IRC-IRC-IRC-IRC-IRC-IRC-IRC-IRC-IRC-IRC-IRC-IRC-IRC
                          Input orientation:                          
 ---------------------------------------------------------------------
 Center     Atomic      Atomic             Coordinates (Angstroms)
 Number     Number       Type             X           Y           Z
 ---------------------------------------------------------------------
      1         17           0       -1.452550   -0.166261   -0.103100
      2          6           0        0.173195    0.470235    0.648840
      3          1           0        0.097742    0.037265    1.677827
      4          1           0        1.797327    0.198739   -0.143235
      5          1           0       -0.091285    1.543573    0.815700
      6          8           0        2.757696   -0.042623   -0.407364
      7          1           0        2.766934   -0.933313   -0.033477
 ---------------------------------------------------------------------
                    Distance matrix (angstroms):
                    1          2          3          4          5
     1  Cl   0.000000
     2  C    1.900944   0.000000
     3  H    2.369922   1.118916   0.000000
     4  H    3.270556   1.827265   2.496183   0.000000
     5  H    2.370816   1.117965   1.745841   2.508982   0.000000
     6  O    4.223036   2.838703   3.380793   1.024855   3.482613
     7  H    4.289203   3.027042   3.315896   1.494566   3.876272
                    6          7
     6  O    0.000000
     7  H    0.966026   0.000000
 Symmetry turned off by external request.
 Stoichiometry    CH4ClO(1-)
 Framework group  C1[X(CH4ClO)]
 Deg. of freedom    15
 Full point group                 C1      NOp   1
 Rotational constants (GHZ):     28.4410822      2.4069207      2.2667304
 Standard basis: CC-pVDZ (5D, 7F)
    66 basis functions,   165 primitive gaussians,    69 cartesian basis functions
    18 alpha electrons       18 beta electrons
       nuclear repulsion energy        87.6436147554 Hartrees.
 NAtoms=    7 NActive=    7 NUniq=    7 SFac= 1.00D+00 NAtFMM=   60 NAOKFM=F Big=F
 Integral buffers will be    131072 words long.
 Raffenetti 1 integral format.
 Two-electron integral symmetry is turned off.
 One-electron integrals computed using PRISM.
 NBasis=    66 RedAO= T EigKep=  1.93D-02  NBF=    66
 NBsUse=    66 1.00D-06 EigRej= -1.00D+00 NBFU=    66
 Initial guess from the checkpoint file:  "/localscratch/rjackson.12067818.0/Gau-8784.chk"
 B after Tr=    -0.000006    0.000017    0.000077
         Rot=    1.000000    0.000038    0.000013   -0.000010 Ang=   0.00 deg.
 ExpMin= 1.22D-01 ExpMax= 1.28D+05 ExpMxC= 1.24D+03 IAcc=3 IRadAn=         5 AccDes= 0.00D+00
 Harris functional with IExCor=  205 and IRadAn=       5 diagonalized for initial guess.
 HarFok:  IExCor=  205 AccDes= 0.00D+00 IRadAn=         5 IDoV= 1 UseB2=F ITyADJ=14
 ICtDFT=  3500011 ScaDFX=  1.000000  1.000000  1.000000  1.000000
 FoFCou: FMM=F IPFlag=           0 FMFlag=      100000 FMFlg1=           0
         NFxFlg=           0 DoJE=T BraDBF=F KetDBF=T FulRan=T
         wScrn=  0.000000 ICntrl=     500 IOpCl=  0 I1Cent=   200000004 NGrid=           0
         NMat0=    1 NMatS0=      1 NMatT0=    0 NMatD0=    1 NMtDS0=    0 NMtDT0=    0
 Symmetry not used in FoFCou.
 Keep R1 ints in memory in canonical form, NReq=3410978.
 Requested convergence on RMS density matrix=1.00D-08 within 256 cycles.
 Requested convergence on MAX density matrix=1.00D-06.
 Requested convergence on             energy=1.00D-06.
 No special actions if energy rises.
 SCF Done:  E(RHF) =  -574.507719963     A.U. after    8 cycles
            NFock=  8  Conv=0.74D-08     -V/T= 2.0000
 ExpMin= 1.22D-01 ExpMax= 1.28D+05 ExpMxC= 1.24D+03 IAcc=3 IRadAn=         7 AccDes= 0.00D+00
 HarFok:  IExCor=  205 AccDes= 0.00D+00 IRadAn=         7 IDoV=-2 UseB2=F ITyADJ=14
 ICtDFT= 12500011 ScaDFX=  1.000000  1.000000  1.000000  1.000000
 Range of M.O.s used for correlation:     8    66
 NBasis=    66 NAE=    18 NBE=    18 NFC=     7 NFV=     0
 NROrb=     59 NOA=    11 NOB=    11 NVA=    48 NVB=    48
 Fully direct method using O(ONN) memory.
 JobTyp=1 Pass  1:  I=   8 to  18 NPSUse=  1 ParTrn=F ParDer=F DoDerP=T.
 Spin components of T(2) and E(2):
     alpha-alpha T2 =       0.2036527377D-01 E2=     -0.6194702742D-01
     alpha-beta  T2 =       0.1203065391D+00 E2=     -0.3697356245D+00
     beta-beta   T2 =       0.2036527377D-01 E2=     -0.6194702742D-01
 ANorm=    0.1077514309D+01
 E2 =    -0.4936296793D+00 EUMP2 =    -0.57500134964193D+03
          IDoAtm=1111111
          Differentiating once with respect to electric field.
                with respect to dipole field.
          Differentiating once with respect to nuclear coordinates.
 Keep R1 ints in memory in canonical form, NReq=3353197.
          There are     1 degrees of freedom in the 1st order CPHF.  IDoFFX=0 NUNeed=     1.
 LinEq1:  Iter=  0 NonCon=     1 RMS=4.49D-03 Max=4.85D-02 NDo=     1
 AX will form     1 AO Fock derivatives at one time.
 LinEq1:  Iter=  1 NonCon=     1 RMS=1.28D-03 Max=1.36D-02 NDo=     1
 LinEq1:  Iter=  2 NonCon=     1 RMS=4.15D-04 Max=4.89D-03 NDo=     1
 LinEq1:  Iter=  3 NonCon=     1 RMS=7.24D-05 Max=5.85D-04 NDo=     1
 LinEq1:  Iter=  4 NonCon=     1 RMS=2.49D-05 Max=2.15D-04 NDo=     1
 LinEq1:  Iter=  5 NonCon=     1 RMS=7.62D-06 Max=5.76D-05 NDo=     1
 LinEq1:  Iter=  6 NonCon=     1 RMS=1.72D-06 Max=2.06D-05 NDo=     1
 LinEq1:  Iter=  7 NonCon=     1 RMS=4.04D-07 Max=6.97D-06 NDo=     1
 LinEq1:  Iter=  8 NonCon=     1 RMS=1.26D-07 Max=1.17D-06 NDo=     1
 LinEq1:  Iter=  9 NonCon=     1 RMS=2.89D-08 Max=3.60D-07 NDo=     1
 LinEq1:  Iter= 10 NonCon=     1 RMS=6.44D-09 Max=6.30D-08 NDo=     1
 LinEq1:  Iter= 11 NonCon=     1 RMS=1.30D-09 Max=8.54D-09 NDo=     1
 LinEq1:  Iter= 12 NonCon=     1 RMS=2.29D-10 Max=1.40D-09 NDo=     1
 LinEq1:  Iter= 13 NonCon=     0 RMS=5.37D-11 Max=3.24D-10 NDo=     1
 Linear equations converged to 1.000D-10 1.000D-09 after    13 iterations.
 End of Minotr F.D. properties file   721 does not exist.
 End of Minotr F.D. properties file   722 does not exist.
 End of Minotr F.D. properties file   788 does not exist.
 Symmetrizing basis deriv contribution to polar:
 IMax=3 JMax=2 DiffMx= 0.00D+00
 Calling FoFJK, ICntrl=  10002127 FMM=F ISym2X=0 I1Cent= 0 IOpClX= 0 NMat=1 NMatS=1 NMatT=0.
 -------------------------------------------------------------------
 Center     Atomic                   Forces (Hartrees/Bohr)
 Number     Number              X              Y              Z
 -------------------------------------------------------------------
      1       17           0.000431338   -0.000127304   -0.000150162
      2        6          -0.000069836    0.000198216    0.000216518
      3        1          -0.000016369    0.000019210    0.000018178
      4        1          -0.000005907    0.000011736    0.000017283
      5        1          -0.000019459    0.000014055    0.000009601
      6        8          -0.000271118   -0.000039948   -0.000052911
      7        1          -0.000048648   -0.000075965   -0.000058506
 -------------------------------------------------------------------
 Cartesian Forces:  Max     0.000431338 RMS     0.000139288
 IRC-IRC-IRC-IRC-IRC-IRC-IRC-IRC-IRC-IRC-IRC-IRC-IRC-IRC-IRC-IRC-IRC-IRC
 Error in corrector energy =          -0.0000000171
 Magnitude of corrector gradient =     0.0006382890
 Magnitude of analytic gradient =      0.0006382959
 Magnitude of difference =             0.0000600597
 Angle between gradients (degrees)=    5.3932
 Pt  1 Step number   2 out of a maximum of  20
 Modified Bulirsch-Stoer Extrapolation Cycles:
    EPS =    0.000000333333333
 Maximum DWI energy   std dev =  0.000000014 at pt     8
 Maximum DWI gradient std dev =  0.337373176 at pt    10
 CORRECTOR INTEGRATION CONVERGENCE:
   Recorrection delta-x convergence threshold:    0.001826
   Delta-x Convergence Met
 Point Number:   1          Path Number:   1
   CHANGE IN THE REACTION COORDINATE =    0.06552
   NET REACTION COORDINATE UP TO THIS POINT =    0.06552
  # OF POINTS ALONG THE PATH =   1
  # OF STEPS =   2

 Calculating another point on the path.
 IRC-IRC-IRC-IRC-IRC-IRC-IRC-IRC-IRC-IRC-IRC-IRC-IRC-IRC-IRC-IRC-IRC-IRC
                          Input orientation:                          
 ---------------------------------------------------------------------
 Center     Atomic      Atomic             Coordinates (Angstroms)
 Number     Number       Type             X           Y           Z
 ---------------------------------------------------------------------
      1         17           0       -1.450106   -0.166988   -0.103957
      2          6           0        0.172045    0.473518    0.652429
      3          1           0        0.094502    0.041095    1.681473
      4          1           0        1.795909    0.200871   -0.139522
      5          1           0       -0.095182    1.546435    0.817650
      6          8           0        2.754398   -0.043591   -0.407818
      7          1           0        2.756910   -0.940662   -0.048534
 ---------------------------------------------------------------------
                    Distance matrix (angstroms):
                    1          2          3          4          5
     1  Cl   0.000000
     2  C    1.900985   0.000000
     3  H    2.369994   1.118898   0.000000
     4  H    3.266986   1.827145   2.497266   0.000000
     5  H    2.370864   1.117971   1.745914   2.510566   0.000000
     6  O    4.217276   2.839027   3.383395   1.024913   3.485693
     7  H    4.277923   3.028660   3.323430   1.494958   3.882055
                    6          7
     6  O    0.000000
     7  H    0.966348   0.000000
 Symmetry turned off by external request.
 Stoichiometry    CH4ClO(1-)
 Framework group  C1[X(CH4ClO)]
 Deg. of freedom    15
 Full point group                 C1      NOp   1
 Rotational constants (GHZ):     28.1985872      2.4139253      2.2712386
 Standard basis: CC-pVDZ (5D, 7F)
    66 basis functions,   165 primitive gaussians,    69 cartesian basis functions
    18 alpha electrons       18 beta electrons
       nuclear repulsion energy        87.6685637021 Hartrees.
 NAtoms=    7 NActive=    7 NUniq=    7 SFac= 1.00D+00 NAtFMM=   60 NAOKFM=F Big=F
 Integral buffers will be    131072 words long.
 Raffenetti 1 integral format.
 Two-electron integral symmetry is turned off.
 One-electron integrals computed using PRISM.
 NBasis=    66 RedAO= T EigKep=  1.93D-02  NBF=    66
 NBsUse=    66 1.00D-06 EigRej= -1.00D+00 NBFU=    66
 Initial guess from the checkpoint file:  "/localscratch/rjackson.12067818.0/Gau-8784.chk"
 B after Tr=    -0.000569    0.000105   -0.000122
         Rot=    1.000000   -0.000224   -0.000061    0.000057 Ang=  -0.03 deg.
 ExpMin= 1.22D-01 ExpMax= 1.28D+05 ExpMxC= 1.24D+03 IAcc=3 IRadAn=         5 AccDes= 0.00D+00
 Harris functional with IExCor=  205 and IRadAn=       5 diagonalized for initial guess.
 HarFok:  IExCor=  205 AccDes= 0.00D+00 IRadAn=         5 IDoV= 1 UseB2=F ITyADJ=14
 ICtDFT=  3500011 ScaDFX=  1.000000  1.000000  1.000000  1.000000
 FoFCou: FMM=F IPFlag=           0 FMFlag=      100000 FMFlg1=           0
         NFxFlg=           0 DoJE=T BraDBF=F KetDBF=T FulRan=T
         wScrn=  0.000000 ICntrl=     500 IOpCl=  0 I1Cent=   200000004 NGrid=           0
         NMat0=    1 NMatS0=      1 NMatT0=    0 NMatD0=    1 NMtDS0=    0 NMtDT0=    0
 Symmetry not used in FoFCou.
 Keep R1 ints in memory in canonical form, NReq=3410978.
 Requested convergence on RMS density matrix=1.00D-08 within 256 cycles.
 Requested convergence on MAX density matrix=1.00D-06.
 Requested convergence on             energy=1.00D-06.
 No special actions if energy rises.
 SCF Done:  E(RHF) =  -574.507730554     A.U. after   11 cycles
            NFock= 11  Conv=0.46D-08     -V/T= 2.0000
 ExpMin= 1.22D-01 ExpMax= 1.28D+05 ExpMxC= 1.24D+03 IAcc=3 IRadAn=         7 AccDes= 0.00D+00
 HarFok:  IExCor=  205 AccDes= 0.00D+00 IRadAn=         7 IDoV=-2 UseB2=F ITyADJ=14
 ICtDFT= 12500011 ScaDFX=  1.000000  1.000000  1.000000  1.000000
 Range of M.O.s used for correlation:     8    66
 NBasis=    66 NAE=    18 NBE=    18 NFC=     7 NFV=     0
 NROrb=     59 NOA=    11 NOB=    11 NVA=    48 NVB=    48
 Fully direct method using O(ONN) memory.
 JobTyp=1 Pass  1:  I=   8 to  18 NPSUse=  1 ParTrn=F ParDer=F DoDerP=T.
 Spin components of T(2) and E(2):
     alpha-alpha T2 =       0.2036482769D-01 E2=     -0.6194605488D-01
     alpha-beta  T2 =       0.1203089097D+00 E2=     -0.3697382551D+00
     beta-beta   T2 =       0.2036482769D-01 E2=     -0.6194605488D-01
 ANorm=    0.1077514995D+01
 E2 =    -0.4936303648D+00 EUMP2 =    -0.57500136091884D+03
          IDoAtm=1111111
          Differentiating once with respect to electric field.
                with respect to dipole field.
          Differentiating once with respect to nuclear coordinates.
 Keep R1 ints in memory in canonical form, NReq=3353197.
          There are     1 degrees of freedom in the 1st order CPHF.  IDoFFX=0 NUNeed=     1.
 LinEq1:  Iter=  0 NonCon=     1 RMS=4.49D-03 Max=4.83D-02 NDo=     1
 AX will form     1 AO Fock derivatives at one time.
 LinEq1:  Iter=  1 NonCon=     1 RMS=1.28D-03 Max=1.35D-02 NDo=     1
 LinEq1:  Iter=  2 NonCon=     1 RMS=4.15D-04 Max=4.89D-03 NDo=     1
 LinEq1:  Iter=  3 NonCon=     1 RMS=7.24D-05 Max=5.86D-04 NDo=     1
 LinEq1:  Iter=  4 NonCon=     1 RMS=2.49D-05 Max=2.16D-04 NDo=     1
 LinEq1:  Iter=  5 NonCon=     1 RMS=7.62D-06 Max=5.80D-05 NDo=     1
 LinEq1:  Iter=  6 NonCon=     1 RMS=1.73D-06 Max=2.08D-05 NDo=     1
 LinEq1:  Iter=  7 NonCon=     1 RMS=4.08D-07 Max=7.00D-06 NDo=     1
 LinEq1:  Iter=  8 NonCon=     1 RMS=1.27D-07 Max=1.18D-06 NDo=     1
 LinEq1:  Iter=  9 NonCon=     1 RMS=2.91D-08 Max=3.61D-07 NDo=     1
 LinEq1:  Iter= 10 NonCon=     1 RMS=6.46D-09 Max=6.29D-08 NDo=     1
 LinEq1:  Iter= 11 NonCon=     1 RMS=1.30D-09 Max=8.57D-09 NDo=     1
 LinEq1:  Iter= 12 NonCon=     1 RMS=2.30D-10 Max=1.41D-09 NDo=     1
 LinEq1:  Iter= 13 NonCon=     0 RMS=5.39D-11 Max=3.24D-10 NDo=     1
 Linear equations converged to 1.000D-10 1.000D-09 after    13 iterations.
 End of Minotr F.D. properties file   721 does not exist.
 End of Minotr F.D. properties file   722 does not exist.
 End of Minotr F.D. properties file   788 does not exist.
 Symmetrizing basis deriv contribution to polar:
 IMax=3 JMax=2 DiffMx= 0.00D+00
 Calling FoFJK, ICntrl=  10002127 FMM=F ISym2X=0 I1Cent= 0 IOpClX= 0 NMat=1 NMatS=1 NMatT=0.
 -------------------------------------------------------------------
 Center     Atomic                   Forces (Hartrees/Bohr)
 Number     Number              X              Y              Z
 -------------------------------------------------------------------
      1       17           0.000420612   -0.000122466   -0.000141425
      2        6          -0.000071213    0.000200192    0.000208584
      3        1          -0.000016578    0.000018077    0.000014488
      4        1           0.000010364   -0.000019804    0.000024205
      5        1          -0.000019104    0.000008692    0.000007672
      6        8          -0.000254249   -0.000319524    0.000062453
      7        1          -0.000069833    0.000234834   -0.000175978
 -------------------------------------------------------------------
 Cartesian Forces:  Max     0.000420612 RMS     0.000163968
 IRC-IRC-IRC-IRC-IRC-IRC-IRC-IRC-IRC-IRC-IRC-IRC-IRC-IRC-IRC-IRC-IRC-IRC
 Pt  2 Step number   1 out of a maximum of  20
 Modified Bulirsch-Stoer Extrapolation Cycles:
    EPS =    0.000000333333333
 Maximum DWI energy   std dev =  0.000000059 at pt    48
 Maximum DWI gradient std dev =  0.436894857 at pt   110
 CORRECTOR INTEGRATION CONVERGENCE:
   Recorrection delta-x convergence threshold:    0.001826
   Delta-x Convergence Met
 Point Number:   2          Path Number:   1
   CHANGE IN THE REACTION COORDINATE =    0.06588
   NET REACTION COORDINATE UP TO THIS POINT =    0.13140
  # OF POINTS ALONG THE PATH =   2
  # OF STEPS =   1

 Calculating another point on the path.
 IRC-IRC-IRC-IRC-IRC-IRC-IRC-IRC-IRC-IRC-IRC-IRC-IRC-IRC-IRC-IRC-IRC-IRC
                          Input orientation:                          
 ---------------------------------------------------------------------
 Center     Atomic      Atomic             Coordinates (Angstroms)
 Number     Number       Type             X           Y           Z
 ---------------------------------------------------------------------
      1         17           0       -1.447629   -0.167725   -0.104813
      2          6           0        0.170824    0.476888    0.656086
      3          1           0        0.091033    0.045188    1.685243
      4          1           0        1.794450    0.202848   -0.135887
      5          1           0       -0.099175    1.549396    0.819447
      6          8           0        2.750980   -0.044663   -0.408407
      7          1           0        2.747013   -0.947014   -0.062676
 ---------------------------------------------------------------------
                    Distance matrix (angstroms):
                    1          2          3          4          5
     1  Cl   0.000000
     2  C    1.901022   0.000000
     3  H    2.370045   1.118882   0.000000
     4  H    3.263337   1.827150   2.498600   0.000000
     5  H    2.370884   1.117972   1.745974   2.512304   0.000000
     6  O    4.211370   2.839430   3.386261   1.024929   3.488844
     7  H    4.266625   3.029994   3.330753   1.494965   3.887286
                    6          7
     6  O    0.000000
     7  H    0.966325   0.000000
 Symmetry turned off by external request.
 Stoichiometry    CH4ClO(1-)
 Framework group  C1[X(CH4ClO)]
 Deg. of freedom    15
 Full point group                 C1      NOp   1
 Rotational constants (GHZ):     27.9547997      2.4211199      2.2758498
 Standard basis: CC-pVDZ (5D, 7F)
    66 basis functions,   165 primitive gaussians,    69 cartesian basis functions
    18 alpha electrons       18 beta electrons
       nuclear repulsion energy        87.6958562988 Hartrees.
 NAtoms=    7 NActive=    7 NUniq=    7 SFac= 1.00D+00 NAtFMM=   60 NAOKFM=F Big=F
 Integral buffers will be    131072 words long.
 Raffenetti 1 integral format.
 Two-electron integral symmetry is turned off.
 One-electron integrals computed using PRISM.
 NBasis=    66 RedAO= T EigKep=  1.93D-02  NBF=    66
 NBsUse=    66 1.00D-06 EigRej= -1.00D+00 NBFU=    66
 Initial guess from the checkpoint file:  "/localscratch/rjackson.12067818.0/Gau-8784.chk"
 B after Tr=    -0.000625    0.000129   -0.000110
         Rot=    1.000000   -0.000137   -0.000062    0.000048 Ang=  -0.02 deg.
 ExpMin= 1.22D-01 ExpMax= 1.28D+05 ExpMxC= 1.24D+03 IAcc=3 IRadAn=         5 AccDes= 0.00D+00
 Harris functional with IExCor=  205 and IRadAn=       5 diagonalized for initial guess.
 HarFok:  IExCor=  205 AccDes= 0.00D+00 IRadAn=         5 IDoV= 1 UseB2=F ITyADJ=14
 ICtDFT=  3500011 ScaDFX=  1.000000  1.000000  1.000000  1.000000
 FoFCou: FMM=F IPFlag=           0 FMFlag=      100000 FMFlg1=           0
         NFxFlg=           0 DoJE=T BraDBF=F KetDBF=T FulRan=T
         wScrn=  0.000000 ICntrl=     500 IOpCl=  0 I1Cent=   200000004 NGrid=           0
         NMat0=    1 NMatS0=      1 NMatT0=    0 NMatD0=    1 NMtDS0=    0 NMtDT0=    0
 Symmetry not used in FoFCou.
 Keep R1 ints in memory in canonical form, NReq=3410992.
 Requested convergence on RMS density matrix=1.00D-08 within 256 cycles.
 Requested convergence on MAX density matrix=1.00D-06.
 Requested convergence on             energy=1.00D-06.
 No special actions if energy rises.
 SCF Done:  E(RHF) =  -574.507754558     A.U. after   11 cycles
            NFock= 11  Conv=0.27D-08     -V/T= 2.0000
 ExpMin= 1.22D-01 ExpMax= 1.28D+05 ExpMxC= 1.24D+03 IAcc=3 IRadAn=         7 AccDes= 0.00D+00
 HarFok:  IExCor=  205 AccDes= 0.00D+00 IRadAn=         7 IDoV=-2 UseB2=F ITyADJ=14
 ICtDFT= 12500011 ScaDFX=  1.000000  1.000000  1.000000  1.000000
 Range of M.O.s used for correlation:     8    66
 NBasis=    66 NAE=    18 NBE=    18 NFC=     7 NFV=     0
 NROrb=     59 NOA=    11 NOB=    11 NVA=    48 NVB=    48
 Fully direct method using O(ONN) memory.
 JobTyp=1 Pass  1:  I=   8 to  18 NPSUse=  1 ParTrn=F ParDer=F DoDerP=T.
 Spin components of T(2) and E(2):
     alpha-alpha T2 =       0.2036326145D-01 E2=     -0.6194392533D-01
     alpha-beta  T2 =       0.1203021786D+00 E2=     -0.3697295883D+00
     beta-beta   T2 =       0.2036326145D-01 E2=     -0.6194392533D-01
 ANorm=    0.1077510418D+01
 E2 =    -0.4936174390D+00 EUMP2 =    -0.57500137199733D+03
          IDoAtm=1111111
          Differentiating once with respect to electric field.
                with respect to dipole field.
          Differentiating once with respect to nuclear coordinates.
 Keep R1 ints in memory in canonical form, NReq=3353267.
          There are     1 degrees of freedom in the 1st order CPHF.  IDoFFX=0 NUNeed=     1.
 LinEq1:  Iter=  0 NonCon=     1 RMS=4.49D-03 Max=4.81D-02 NDo=     1
 AX will form     1 AO Fock derivatives at one time.
 LinEq1:  Iter=  1 NonCon=     1 RMS=1.28D-03 Max=1.35D-02 NDo=     1
 LinEq1:  Iter=  2 NonCon=     1 RMS=4.15D-04 Max=4.88D-03 NDo=     1
 LinEq1:  Iter=  3 NonCon=     1 RMS=7.24D-05 Max=5.87D-04 NDo=     1
 LinEq1:  Iter=  4 NonCon=     1 RMS=2.49D-05 Max=2.16D-04 NDo=     1
 LinEq1:  Iter=  5 NonCon=     1 RMS=7.62D-06 Max=5.84D-05 NDo=     1
 LinEq1:  Iter=  6 NonCon=     1 RMS=1.73D-06 Max=2.10D-05 NDo=     1
 LinEq1:  Iter=  7 NonCon=     1 RMS=4.11D-07 Max=7.03D-06 NDo=     1
 LinEq1:  Iter=  8 NonCon=     1 RMS=1.28D-07 Max=1.19D-06 NDo=     1
 LinEq1:  Iter=  9 NonCon=     1 RMS=2.92D-08 Max=3.63D-07 NDo=     1
 LinEq1:  Iter= 10 NonCon=     1 RMS=6.47D-09 Max=6.28D-08 NDo=     1
 LinEq1:  Iter= 11 NonCon=     1 RMS=1.30D-09 Max=8.59D-09 NDo=     1
 LinEq1:  Iter= 12 NonCon=     1 RMS=2.30D-10 Max=1.42D-09 NDo=     1
 LinEq1:  Iter= 13 NonCon=     0 RMS=5.39D-11 Max=3.24D-10 NDo=     1
 Linear equations converged to 1.000D-10 1.000D-09 after    13 iterations.
 End of Minotr F.D. properties file   721 does not exist.
 End of Minotr F.D. properties file   722 does not exist.
 End of Minotr F.D. properties file   788 does not exist.
 Symmetrizing basis deriv contribution to polar:
 IMax=3 JMax=2 DiffMx= 0.00D+00
 Calling FoFJK, ICntrl=  10002127 FMM=F ISym2X=0 I1Cent= 0 IOpClX= 0 NMat=1 NMatS=1 NMatT=0.
 -------------------------------------------------------------------
 Center     Atomic                   Forces (Hartrees/Bohr)
 Number     Number              X              Y              Z
 -------------------------------------------------------------------
      1       17           0.000407251   -0.000119683   -0.000134029
      2        6          -0.000071612    0.000196714    0.000201349
      3        1          -0.000015331    0.000016947    0.000012064
      4        1           0.000011540   -0.000019252    0.000021669
      5        1          -0.000016581    0.000006989    0.000005592
      6        8          -0.000248839   -0.000295923    0.000058558
      7        1          -0.000066429    0.000214210   -0.000165203
 -------------------------------------------------------------------
 Cartesian Forces:  Max     0.000407251 RMS     0.000156603
 IRC-IRC-IRC-IRC-IRC-IRC-IRC-IRC-IRC-IRC-IRC-IRC-IRC-IRC-IRC-IRC-IRC-IRC
 Pt  3 Step number   1 out of a maximum of  20
 Modified Bulirsch-Stoer Extrapolation Cycles:
    EPS =    0.000000333333333
 Maximum DWI energy   std dev =  0.000000083 at pt    47
 Maximum DWI gradient std dev =  0.416025798 at pt   147
 CORRECTOR INTEGRATION CONVERGENCE:
   Recorrection delta-x convergence threshold:    0.001826
   Delta-x Convergence Met
 Point Number:   3          Path Number:   1
   CHANGE IN THE REACTION COORDINATE =    0.06589
   NET REACTION COORDINATE UP TO THIS POINT =    0.19729
  # OF POINTS ALONG THE PATH =   3
  # OF STEPS =   1

 Calculating another point on the path.
 IRC-IRC-IRC-IRC-IRC-IRC-IRC-IRC-IRC-IRC-IRC-IRC-IRC-IRC-IRC-IRC-IRC-IRC
                          Input orientation:                          
 ---------------------------------------------------------------------
 Center     Atomic      Atomic             Coordinates (Angstroms)
 Number     Number       Type             X           Y           Z
 ---------------------------------------------------------------------
      1         17           0       -1.445206   -0.168463   -0.105628
      2          6           0        0.169615    0.480239    0.659593
      3          1           0        0.087633    0.049329    1.688886
      4          1           0        1.793101    0.204818   -0.132204
      5          1           0       -0.103077    1.552355    0.821013
      6          8           0        2.747655   -0.045704   -0.408890
      7          1           0        2.736688   -0.953567   -0.077841
 ---------------------------------------------------------------------
                    Distance matrix (angstroms):
                    1          2          3          4          5
     1  Cl   0.000000
     2  C    1.901059   0.000000
     3  H    2.370087   1.118860   0.000000
     4  H    3.259859   1.827159   2.499834   0.000000
     5  H    2.370905   1.117967   1.746042   2.513956   0.000000
     6  O    4.205606   2.839818   3.389014   1.024934   3.491866
     7  H    4.255044   3.031414   3.338355   1.495047   3.892538
                    6          7
     6  O    0.000000
     7  H    0.966400   0.000000
 Symmetry turned off by external request.
 Stoichiometry    CH4ClO(1-)
 Framework group  C1[X(CH4ClO)]
 Deg. of freedom    15
 Full point group                 C1      NOp   1
 Rotational constants (GHZ):     27.7202998      2.4282173      2.2803710
 Standard basis: CC-pVDZ (5D, 7F)
    66 basis functions,   165 primitive gaussians,    69 cartesian basis functions
    18 alpha electrons       18 beta electrons
       nuclear repulsion energy        87.7224029729 Hartrees.
 NAtoms=    7 NActive=    7 NUniq=    7 SFac= 1.00D+00 NAtFMM=   60 NAOKFM=F Big=F
 Integral buffers will be    131072 words long.
 Raffenetti 1 integral format.
 Two-electron integral symmetry is turned off.
 One-electron integrals computed using PRISM.
 NBasis=    66 RedAO= T EigKep=  1.93D-02  NBF=    66
 NBsUse=    66 1.00D-06 EigRej= -1.00D+00 NBFU=    66
 Initial guess from the checkpoint file:  "/localscratch/rjackson.12067818.0/Gau-8784.chk"
 B after Tr=    -0.000640    0.000130   -0.000145
         Rot=    1.000000   -0.000143   -0.000068    0.000051 Ang=  -0.02 deg.
 ExpMin= 1.22D-01 ExpMax= 1.28D+05 ExpMxC= 1.24D+03 IAcc=3 IRadAn=         5 AccDes= 0.00D+00
 Harris functional with IExCor=  205 and IRadAn=       5 diagonalized for initial guess.
 HarFok:  IExCor=  205 AccDes= 0.00D+00 IRadAn=         5 IDoV= 1 UseB2=F ITyADJ=14
 ICtDFT=  3500011 ScaDFX=  1.000000  1.000000  1.000000  1.000000
 FoFCou: FMM=F IPFlag=           0 FMFlag=      100000 FMFlg1=           0
         NFxFlg=           0 DoJE=T BraDBF=F KetDBF=T FulRan=T
         wScrn=  0.000000 ICntrl=     500 IOpCl=  0 I1Cent=   200000004 NGrid=           0
         NMat0=    1 NMatS0=      1 NMatT0=    0 NMatD0=    1 NMtDS0=    0 NMtDT0=    0
 Symmetry not used in FoFCou.
 Keep R1 ints in memory in canonical form, NReq=3410992.
 Requested convergence on RMS density matrix=1.00D-08 within 256 cycles.
 Requested convergence on MAX density matrix=1.00D-06.
 Requested convergence on             energy=1.00D-06.
 No special actions if energy rises.
 SCF Done:  E(RHF) =  -574.507775583     A.U. after   11 cycles
            NFock= 11  Conv=0.35D-08     -V/T= 2.0000
 ExpMin= 1.22D-01 ExpMax= 1.28D+05 ExpMxC= 1.24D+03 IAcc=3 IRadAn=         7 AccDes= 0.00D+00
 HarFok:  IExCor=  205 AccDes= 0.00D+00 IRadAn=         7 IDoV=-2 UseB2=F ITyADJ=14
 ICtDFT= 12500011 ScaDFX=  1.000000  1.000000  1.000000  1.000000
 Range of M.O.s used for correlation:     8    66
 NBasis=    66 NAE=    18 NBE=    18 NFC=     7 NFV=     0
 NROrb=     59 NOA=    11 NOB=    11 NVA=    48 NVB=    48
 Fully direct method using O(ONN) memory.
 JobTyp=1 Pass  1:  I=   8 to  18 NPSUse=  1 ParTrn=F ParDer=F DoDerP=T.
 Spin components of T(2) and E(2):
     alpha-alpha T2 =       0.2036191228D-01 E2=     -0.6194196019D-01
     alpha-beta  T2 =       0.1202974247D+00 E2=     -0.3697232854D+00
     beta-beta   T2 =       0.2036191228D-01 E2=     -0.6194196019D-01
 ANorm=    0.1077506960D+01
 E2 =    -0.4936072058D+00 EUMP2 =    -0.57500138278879D+03
          IDoAtm=1111111
          Differentiating once with respect to electric field.
                with respect to dipole field.
          Differentiating once with respect to nuclear coordinates.
 Keep R1 ints in memory in canonical form, NReq=3353324.
          There are     1 degrees of freedom in the 1st order CPHF.  IDoFFX=0 NUNeed=     1.
 LinEq1:  Iter=  0 NonCon=     1 RMS=4.49D-03 Max=4.80D-02 NDo=     1
 AX will form     1 AO Fock derivatives at one time.
 LinEq1:  Iter=  1 NonCon=     1 RMS=1.28D-03 Max=1.35D-02 NDo=     1
 LinEq1:  Iter=  2 NonCon=     1 RMS=4.15D-04 Max=4.88D-03 NDo=     1
 LinEq1:  Iter=  3 NonCon=     1 RMS=7.24D-05 Max=5.88D-04 NDo=     1
 LinEq1:  Iter=  4 NonCon=     1 RMS=2.49D-05 Max=2.17D-04 NDo=     1
 LinEq1:  Iter=  5 NonCon=     1 RMS=7.62D-06 Max=5.88D-05 NDo=     1
 LinEq1:  Iter=  6 NonCon=     1 RMS=1.74D-06 Max=2.13D-05 NDo=     1
 LinEq1:  Iter=  7 NonCon=     1 RMS=4.14D-07 Max=7.06D-06 NDo=     1
 LinEq1:  Iter=  8 NonCon=     1 RMS=1.29D-07 Max=1.20D-06 NDo=     1
 LinEq1:  Iter=  9 NonCon=     1 RMS=2.94D-08 Max=3.65D-07 NDo=     1
 LinEq1:  Iter= 10 NonCon=     1 RMS=6.49D-09 Max=6.27D-08 NDo=     1
 LinEq1:  Iter= 11 NonCon=     1 RMS=1.30D-09 Max=8.62D-09 NDo=     1
 LinEq1:  Iter= 12 NonCon=     1 RMS=2.30D-10 Max=1.43D-09 NDo=     1
 LinEq1:  Iter= 13 NonCon=     0 RMS=5.40D-11 Max=3.24D-10 NDo=     1
 Linear equations converged to 1.000D-10 1.000D-09 after    13 iterations.
 End of Minotr F.D. properties file   721 does not exist.
 End of Minotr F.D. properties file   722 does not exist.
 End of Minotr F.D. properties file   788 does not exist.
 Symmetrizing basis deriv contribution to polar:
 IMax=3 JMax=2 DiffMx= 0.00D+00
 Calling FoFJK, ICntrl=  10002127 FMM=F ISym2X=0 I1Cent= 0 IOpClX= 0 NMat=1 NMatS=1 NMatT=0.
 -------------------------------------------------------------------
 Center     Atomic                   Forces (Hartrees/Bohr)
 Number     Number              X              Y              Z
 -------------------------------------------------------------------
      1       17           0.000393356   -0.000117310   -0.000128607
      2        6          -0.000068946    0.000190949    0.000192430
      3        1          -0.000014637    0.000016712    0.000012159
      4        1           0.000007680   -0.000021093    0.000023559
      5        1          -0.000016400    0.000007975    0.000005343
      6        8          -0.000235409   -0.000365962    0.000082891
      7        1          -0.000065645    0.000288729   -0.000187776
 -------------------------------------------------------------------
 Cartesian Forces:  Max     0.000393356 RMS     0.000166831
 IRC-IRC-IRC-IRC-IRC-IRC-IRC-IRC-IRC-IRC-IRC-IRC-IRC-IRC-IRC-IRC-IRC-IRC
 Pt  4 Step number   1 out of a maximum of  20
 Modified Bulirsch-Stoer Extrapolation Cycles:
    EPS =    0.000000333333333
 Maximum DWI energy   std dev =  0.000000102 at pt    47
 Maximum DWI gradient std dev =  0.516160077 at pt   145
 CORRECTOR INTEGRATION CONVERGENCE:
   Recorrection delta-x convergence threshold:    0.001826
   Delta-x Convergence Met
 Point Number:   4          Path Number:   1
   CHANGE IN THE REACTION COORDINATE =    0.06589
   NET REACTION COORDINATE UP TO THIS POINT =    0.26318
  # OF POINTS ALONG THE PATH =   4
  # OF STEPS =   1

 Calculating another point on the path.
 IRC-IRC-IRC-IRC-IRC-IRC-IRC-IRC-IRC-IRC-IRC-IRC-IRC-IRC-IRC-IRC-IRC-IRC
                          Input orientation:                          
 ---------------------------------------------------------------------
 Center     Atomic      Atomic             Coordinates (Angstroms)
 Number     Number       Type             X           Y           Z
 ---------------------------------------------------------------------
      1         17           0       -1.442779   -0.169203   -0.106439
      2          6           0        0.168364    0.483642    0.663142
      3          1           0        0.084071    0.053677    1.692629
      4          1           0        1.791710    0.206709   -0.128549
      5          1           0       -0.107027    1.555387    0.822455
      6          8           0        2.744251   -0.046809   -0.409464
      7          1           0        2.726469   -0.959505   -0.092486
 ---------------------------------------------------------------------
                    Distance matrix (angstroms):
                    1          2          3          4          5
     1  Cl   0.000000
     2  C    1.901116   0.000000
     3  H    2.370146   1.118846   0.000000
     4  H    3.256336   1.827217   2.501227   0.000000
     5  H    2.370926   1.117971   1.746097   2.515660   0.000000
     6  O    4.199765   2.840257   3.391968   1.024948   3.494917
     7  H    4.243513   3.032746   3.345958   1.495035   3.897499
                    6          7
     6  O    0.000000
     7  H    0.966336   0.000000
 Symmetry turned off by external request.
 Stoichiometry    CH4ClO(1-)
 Framework group  C1[X(CH4ClO)]
 Deg. of freedom    15
 Full point group                 C1      NOp   1
 Rotational constants (GHZ):     27.4857461      2.4354280      2.2849384
 Standard basis: CC-pVDZ (5D, 7F)
    66 basis functions,   165 primitive gaussians,    69 cartesian basis functions
    18 alpha electrons       18 beta electrons
       nuclear repulsion energy        87.7493647723 Hartrees.
 NAtoms=    7 NActive=    7 NUniq=    7 SFac= 1.00D+00 NAtFMM=   60 NAOKFM=F Big=F
 Integral buffers will be    131072 words long.
 Raffenetti 1 integral format.
 Two-electron integral symmetry is turned off.
 One-electron integrals computed using PRISM.
 NBasis=    66 RedAO= T EigKep=  1.93D-02  NBF=    66
 NBsUse=    66 1.00D-06 EigRej= -1.00D+00 NBFU=    66
 Initial guess from the checkpoint file:  "/localscratch/rjackson.12067818.0/Gau-8784.chk"
 B after Tr=    -0.000692    0.000151   -0.000138
         Rot=    1.000000   -0.000089   -0.000070    0.000046 Ang=  -0.01 deg.
 ExpMin= 1.22D-01 ExpMax= 1.28D+05 ExpMxC= 1.24D+03 IAcc=3 IRadAn=         5 AccDes= 0.00D+00
 Harris functional with IExCor=  205 and IRadAn=       5 diagonalized for initial guess.
 HarFok:  IExCor=  205 AccDes= 0.00D+00 IRadAn=         5 IDoV= 1 UseB2=F ITyADJ=14
 ICtDFT=  3500011 ScaDFX=  1.000000  1.000000  1.000000  1.000000
 FoFCou: FMM=F IPFlag=           0 FMFlag=      100000 FMFlg1=           0
         NFxFlg=           0 DoJE=T BraDBF=F KetDBF=T FulRan=T
         wScrn=  0.000000 ICntrl=     500 IOpCl=  0 I1Cent=   200000004 NGrid=           0
         NMat0=    1 NMatS0=      1 NMatT0=    0 NMatD0=    1 NMtDS0=    0 NMtDT0=    0
 Symmetry not used in FoFCou.
 Keep R1 ints in memory in canonical form, NReq=3411020.
 Requested convergence on RMS density matrix=1.00D-08 within 256 cycles.
 Requested convergence on MAX density matrix=1.00D-06.
 Requested convergence on             energy=1.00D-06.
 No special actions if energy rises.
 SCF Done:  E(RHF) =  -574.507801596     A.U. after   11 cycles
            NFock= 11  Conv=0.29D-08     -V/T= 2.0000
 ExpMin= 1.22D-01 ExpMax= 1.28D+05 ExpMxC= 1.24D+03 IAcc=3 IRadAn=         7 AccDes= 0.00D+00
 HarFok:  IExCor=  205 AccDes= 0.00D+00 IRadAn=         7 IDoV=-2 UseB2=F ITyADJ=14
 ICtDFT= 12500011 ScaDFX=  1.000000  1.000000  1.000000  1.000000
 Range of M.O.s used for correlation:     8    66
 NBasis=    66 NAE=    18 NBE=    18 NFC=     7 NFV=     0
 NROrb=     59 NOA=    11 NOB=    11 NVA=    48 NVB=    48
 Fully direct method using O(ONN) memory.
 JobTyp=1 Pass  1:  I=   8 to  18 NPSUse=  1 ParTrn=F ParDer=F DoDerP=T.
 Spin components of T(2) and E(2):
     alpha-alpha T2 =       0.2036015845D-01 E2=     -0.6193943223D-01
     alpha-beta  T2 =       0.1202898646D+00 E2=     -0.3697129517D+00
     beta-beta   T2 =       0.2036015845D-01 E2=     -0.6193943223D-01
 ANorm=    0.1077501824D+01
 E2 =    -0.4935918162D+00 EUMP2 =    -0.57500139341265D+03
          IDoAtm=1111111
          Differentiating once with respect to electric field.
                with respect to dipole field.
          Differentiating once with respect to nuclear coordinates.
 Keep R1 ints in memory in canonical form, NReq=3353305.
          There are     1 degrees of freedom in the 1st order CPHF.  IDoFFX=0 NUNeed=     1.
 LinEq1:  Iter=  0 NonCon=     1 RMS=4.49D-03 Max=4.78D-02 NDo=     1
 AX will form     1 AO Fock derivatives at one time.
 LinEq1:  Iter=  1 NonCon=     1 RMS=1.28D-03 Max=1.35D-02 NDo=     1
 LinEq1:  Iter=  2 NonCon=     1 RMS=4.16D-04 Max=4.87D-03 NDo=     1
 LinEq1:  Iter=  3 NonCon=     1 RMS=7.23D-05 Max=5.89D-04 NDo=     1
 LinEq1:  Iter=  4 NonCon=     1 RMS=2.49D-05 Max=2.17D-04 NDo=     1
 LinEq1:  Iter=  5 NonCon=     1 RMS=7.62D-06 Max=5.92D-05 NDo=     1
 LinEq1:  Iter=  6 NonCon=     1 RMS=1.74D-06 Max=2.15D-05 NDo=     1
 LinEq1:  Iter=  7 NonCon=     1 RMS=4.18D-07 Max=7.09D-06 NDo=     1
 LinEq1:  Iter=  8 NonCon=     1 RMS=1.30D-07 Max=1.21D-06 NDo=     1
 LinEq1:  Iter=  9 NonCon=     1 RMS=2.95D-08 Max=3.67D-07 NDo=     1
 LinEq1:  Iter= 10 NonCon=     1 RMS=6.50D-09 Max=6.26D-08 NDo=     1
 LinEq1:  Iter= 11 NonCon=     1 RMS=1.30D-09 Max=8.64D-09 NDo=     1
 LinEq1:  Iter= 12 NonCon=     1 RMS=2.30D-10 Max=1.43D-09 NDo=     1
 LinEq1:  Iter= 13 NonCon=     0 RMS=5.41D-11 Max=3.24D-10 NDo=     1
 Linear equations converged to 1.000D-10 1.000D-09 after    13 iterations.
 End of Minotr F.D. properties file   721 does not exist.
 End of Minotr F.D. properties file   722 does not exist.
 End of Minotr F.D. properties file   788 does not exist.
 Symmetrizing basis deriv contribution to polar:
 IMax=3 JMax=2 DiffMx= 0.00D+00
 Calling FoFJK, ICntrl=  10002127 FMM=F ISym2X=0 I1Cent= 0 IOpClX= 0 NMat=1 NMatS=1 NMatT=0.
 -------------------------------------------------------------------
 Center     Atomic                   Forces (Hartrees/Bohr)
 Number     Number              X              Y              Z
 -------------------------------------------------------------------
      1       17           0.000383193   -0.000114813   -0.000120990
      2        6          -0.000070359    0.000189538    0.000186503
      3        1          -0.000013380    0.000015382    0.000008778
      4        1           0.000013055   -0.000022051    0.000019048
      5        1          -0.000013604    0.000005236    0.000002873
      6        8          -0.000235754   -0.000302371    0.000067766
      7        1          -0.000063150    0.000229079   -0.000163978
 -------------------------------------------------------------------
 Cartesian Forces:  Max     0.000383193 RMS     0.000152285
 IRC-IRC-IRC-IRC-IRC-IRC-IRC-IRC-IRC-IRC-IRC-IRC-IRC-IRC-IRC-IRC-IRC-IRC
 Pt  5 Step number   1 out of a maximum of  20
 Modified Bulirsch-Stoer Extrapolation Cycles:
    EPS =    0.000000333333333
 Maximum DWI energy   std dev =  0.000000079 at pt    47
 Maximum DWI gradient std dev =  0.432406174 at pt   147
 CORRECTOR INTEGRATION CONVERGENCE:
   Recorrection delta-x convergence threshold:    0.001826
   Delta-x Convergence Met
 Point Number:   5          Path Number:   1
   CHANGE IN THE REACTION COORDINATE =    0.06588
   NET REACTION COORDINATE UP TO THIS POINT =    0.32906
  # OF POINTS ALONG THE PATH =   5
  # OF STEPS =   1

 Calculating another point on the path.
 IRC-IRC-IRC-IRC-IRC-IRC-IRC-IRC-IRC-IRC-IRC-IRC-IRC-IRC-IRC-IRC-IRC-IRC
                          Input orientation:                          
 ---------------------------------------------------------------------
 Center     Atomic      Atomic             Coordinates (Angstroms)
 Number     Number       Type             X           Y           Z
 ---------------------------------------------------------------------
      1         17           0       -1.440406   -0.169941   -0.107205
      2          6           0        0.167141    0.486999    0.666503
      3          1           0        0.080659    0.057972    1.696172
      4          1           0        1.790443    0.208591   -0.124857
      5          1           0       -0.110851    1.558376    0.823696
      6          8           0        2.740964   -0.047859   -0.409889
      7          1           0        2.715714   -0.965754   -0.108389
 ---------------------------------------------------------------------
                    Distance matrix (angstroms):
                    1          2          3          4          5
     1  Cl   0.000000
     2  C    1.901158   0.000000
     3  H    2.370180   1.118822   0.000000
     4  H    3.252997   1.827258   2.502438   0.000000
     5  H    2.370944   1.117962   1.746168   2.517259   0.000000
     6  O    4.194089   2.840643   3.394689   1.024939   3.497795
     7  H    4.231626   3.034168   3.353799   1.495154   3.902497
                    6          7
     6  O    0.000000
     7  H    0.966474   0.000000
 Symmetry turned off by external request.
 Stoichiometry    CH4ClO(1-)
 Framework group  C1[X(CH4ClO)]
 Deg. of freedom    15
 Full point group                 C1      NOp   1
 Rotational constants (GHZ):     27.2623272      2.4425235      2.2894143
 Standard basis: CC-pVDZ (5D, 7F)
    66 basis functions,   165 primitive gaussians,    69 cartesian basis functions
    18 alpha electrons       18 beta electrons
       nuclear repulsion energy        87.7755725163 Hartrees.
 NAtoms=    7 NActive=    7 NUniq=    7 SFac= 1.00D+00 NAtFMM=   60 NAOKFM=F Big=F
 Integral buffers will be    131072 words long.
 Raffenetti 1 integral format.
 Two-electron integral symmetry is turned off.
 One-electron integrals computed using PRISM.
 NBasis=    66 RedAO= T EigKep=  1.93D-02  NBF=    66
 NBsUse=    66 1.00D-06 EigRej= -1.00D+00 NBFU=    66
 Initial guess from the checkpoint file:  "/localscratch/rjackson.12067818.0/Gau-8784.chk"
 B after Tr=    -0.000690    0.000145   -0.000180
         Rot=    1.000000   -0.000115   -0.000077    0.000050 Ang=  -0.02 deg.
 ExpMin= 1.22D-01 ExpMax= 1.28D+05 ExpMxC= 1.24D+03 IAcc=3 IRadAn=         5 AccDes= 0.00D+00
 Harris functional with IExCor=  205 and IRadAn=       5 diagonalized for initial guess.
 HarFok:  IExCor=  205 AccDes= 0.00D+00 IRadAn=         5 IDoV= 1 UseB2=F ITyADJ=14
 ICtDFT=  3500011 ScaDFX=  1.000000  1.000000  1.000000  1.000000
 FoFCou: FMM=F IPFlag=           0 FMFlag=      100000 FMFlg1=           0
         NFxFlg=           0 DoJE=T BraDBF=F KetDBF=T FulRan=T
         wScrn=  0.000000 ICntrl=     500 IOpCl=  0 I1Cent=   200000004 NGrid=           0
         NMat0=    1 NMatS0=      1 NMatT0=    0 NMatD0=    1 NMtDS0=    0 NMtDT0=    0
 Symmetry not used in FoFCou.
 Keep R1 ints in memory in canonical form, NReq=3411020.
 Requested convergence on RMS density matrix=1.00D-08 within 256 cycles.
 Requested convergence on MAX density matrix=1.00D-06.
 Requested convergence on             energy=1.00D-06.
 No special actions if energy rises.
 SCF Done:  E(RHF) =  -574.507820999     A.U. after   11 cycles
            NFock= 11  Conv=0.39D-08     -V/T= 2.0000
 ExpMin= 1.22D-01 ExpMax= 1.28D+05 ExpMxC= 1.24D+03 IAcc=3 IRadAn=         7 AccDes= 0.00D+00
 HarFok:  IExCor=  205 AccDes= 0.00D+00 IRadAn=         7 IDoV=-2 UseB2=F ITyADJ=14
 ICtDFT= 12500011 ScaDFX=  1.000000  1.000000  1.000000  1.000000
 Range of M.O.s used for correlation:     8    66
 NBasis=    66 NAE=    18 NBE=    18 NFC=     7 NFV=     0
 NROrb=     59 NOA=    11 NOB=    11 NVA=    48 NVB=    48
 Fully direct method using O(ONN) memory.
 JobTyp=1 Pass  1:  I=   8 to  18 NPSUse=  1 ParTrn=F ParDer=F DoDerP=T.
 Spin components of T(2) and E(2):
     alpha-alpha T2 =       0.2035890976D-01 E2=     -0.6193745894D-01
     alpha-beta  T2 =       0.1202862959D+00 E2=     -0.3697078488D+00
     beta-beta   T2 =       0.2035890976D-01 E2=     -0.6193745894D-01
 ANorm=    0.1077499009D+01
 E2 =    -0.4935827667D+00 EUMP2 =    -0.57500140376560D+03
          IDoAtm=1111111
          Differentiating once with respect to electric field.
                with respect to dipole field.
          Differentiating once with respect to nuclear coordinates.
 Keep R1 ints in memory in canonical form, NReq=3353343.
          There are     1 degrees of freedom in the 1st order CPHF.  IDoFFX=0 NUNeed=     1.
 LinEq1:  Iter=  0 NonCon=     1 RMS=4.48D-03 Max=4.76D-02 NDo=     1
 AX will form     1 AO Fock derivatives at one time.
 LinEq1:  Iter=  1 NonCon=     1 RMS=1.28D-03 Max=1.35D-02 NDo=     1
 LinEq1:  Iter=  2 NonCon=     1 RMS=4.16D-04 Max=4.87D-03 NDo=     1
 LinEq1:  Iter=  3 NonCon=     1 RMS=7.23D-05 Max=5.90D-04 NDo=     1
 LinEq1:  Iter=  4 NonCon=     1 RMS=2.49D-05 Max=2.18D-04 NDo=     1
 LinEq1:  Iter=  5 NonCon=     1 RMS=7.62D-06 Max=5.96D-05 NDo=     1
 LinEq1:  Iter=  6 NonCon=     1 RMS=1.75D-06 Max=2.18D-05 NDo=     1
 LinEq1:  Iter=  7 NonCon=     1 RMS=4.21D-07 Max=7.12D-06 NDo=     1
 LinEq1:  Iter=  8 NonCon=     1 RMS=1.31D-07 Max=1.22D-06 NDo=     1
 LinEq1:  Iter=  9 NonCon=     1 RMS=2.97D-08 Max=3.68D-07 NDo=     1
 LinEq1:  Iter= 10 NonCon=     1 RMS=6.51D-09 Max=6.25D-08 NDo=     1
 LinEq1:  Iter= 11 NonCon=     1 RMS=1.30D-09 Max=8.66D-09 NDo=     1
 LinEq1:  Iter= 12 NonCon=     1 RMS=2.30D-10 Max=1.44D-09 NDo=     1
 LinEq1:  Iter= 13 NonCon=     0 RMS=5.42D-11 Max=3.24D-10 NDo=     1
 Linear equations converged to 1.000D-10 1.000D-09 after    13 iterations.
 End of Minotr F.D. properties file   721 does not exist.
 End of Minotr F.D. properties file   722 does not exist.
 End of Minotr F.D. properties file   788 does not exist.
 Symmetrizing basis deriv contribution to polar:
 IMax=3 JMax=2 DiffMx= 0.00D+00
 Calling FoFJK, ICntrl=  10002127 FMM=F ISym2X=0 I1Cent= 0 IOpClX= 0 NMat=1 NMatS=1 NMatT=0.
 -------------------------------------------------------------------
 Center     Atomic                   Forces (Hartrees/Bohr)
 Number     Number              X              Y              Z
 -------------------------------------------------------------------
      1       17           0.000369386   -0.000113285   -0.000117203
      2        6          -0.000065792    0.000182670    0.000176280
      3        1          -0.000012894    0.000015544    0.000011017
      4        1           0.000004449   -0.000023632    0.000024446
      5        1          -0.000014940    0.000008383    0.000003746
      6        8          -0.000219166   -0.000434361    0.000104989
      7        1          -0.000061043    0.000364681   -0.000203276
 -------------------------------------------------------------------
 Cartesian Forces:  Max     0.000434361 RMS     0.000177223
 IRC-IRC-IRC-IRC-IRC-IRC-IRC-IRC-IRC-IRC-IRC-IRC-IRC-IRC-IRC-IRC-IRC-IRC
 Pt  6 Step number   1 out of a maximum of  20
 Modified Bulirsch-Stoer Extrapolation Cycles:
    EPS =    0.000000333333333
 Maximum DWI energy   std dev =  0.000000122 at pt    47
 Maximum DWI gradient std dev =  0.606263227 at pt   143
 CORRECTOR INTEGRATION CONVERGENCE:
   Recorrection delta-x convergence threshold:    0.001826
   Delta-x Convergence Met
 Point Number:   6          Path Number:   1
   CHANGE IN THE REACTION COORDINATE =    0.06588
   NET REACTION COORDINATE UP TO THIS POINT =    0.39494
  # OF POINTS ALONG THE PATH =   6
  # OF STEPS =   1

 Calculating another point on the path.
 IRC-IRC-IRC-IRC-IRC-IRC-IRC-IRC-IRC-IRC-IRC-IRC-IRC-IRC-IRC-IRC-IRC-IRC
                          Input orientation:                          
 ---------------------------------------------------------------------
 Center     Atomic      Atomic             Coordinates (Angstroms)
 Number     Number       Type             X           Y           Z
 ---------------------------------------------------------------------
      1         17           0       -1.438008   -0.170687   -0.107983
      2          6           0        0.165821    0.490497    0.670035
      3          1           0        0.076855    0.062744    1.700020
      4          1           0        1.789012    0.210354   -0.121247
      5          1           0       -0.114837    1.561555    0.824771
      6          8           0        2.737454   -0.049059   -0.410583
      7          1           0        2.705503   -0.970819   -0.122550
 ---------------------------------------------------------------------
                    Distance matrix (angstroms):
                    1          2          3          4          5
     1  Cl   0.000000
     2  C    1.901248   0.000000
     3  H    2.370268   1.118819   0.000000
     4  H    3.249465   1.827391   2.504054   0.000000
     5  H    2.370964   1.117979   1.746208   2.518995   0.000000
     6  O    4.188179   2.841153   3.397931   1.024965   3.500820
     7  H    4.220084   3.035395   3.361518   1.495035   3.907001
                    6          7
     6  O    0.000000
     7  H    0.966243   0.000000
 Symmetry turned off by external request.
 Stoichiometry    CH4ClO(1-)
 Framework group  C1[X(CH4ClO)]
 Deg. of freedom    15
 Full point group                 C1      NOp   1
 Rotational constants (GHZ):     27.0313910      2.4498763      2.2940217
 Standard basis: CC-pVDZ (5D, 7F)
    66 basis functions,   165 primitive gaussians,    69 cartesian basis functions
    18 alpha electrons       18 beta electrons
       nuclear repulsion energy        87.8028356465 Hartrees.
 NAtoms=    7 NActive=    7 NUniq=    7 SFac= 1.00D+00 NAtFMM=   60 NAOKFM=F Big=F
 Integral buffers will be    131072 words long.
 Raffenetti 1 integral format.
 Two-electron integral symmetry is turned off.
 One-electron integrals computed using PRISM.
 NBasis=    66 RedAO= T EigKep=  1.93D-02  NBF=    66
 NBsUse=    66 1.00D-06 EigRej= -1.00D+00 NBFU=    66
 Initial guess from the checkpoint file:  "/localscratch/rjackson.12067818.0/Gau-8784.chk"
 B after Tr=    -0.000803    0.000191   -0.000148
         Rot=    1.000000    0.000013   -0.000078    0.000038 Ang=   0.01 deg.
 ExpMin= 1.22D-01 ExpMax= 1.28D+05 ExpMxC= 1.24D+03 IAcc=3 IRadAn=         5 AccDes= 0.00D+00
 Harris functional with IExCor=  205 and IRadAn=       5 diagonalized for initial guess.
 HarFok:  IExCor=  205 AccDes= 0.00D+00 IRadAn=         5 IDoV= 1 UseB2=F ITyADJ=14
 ICtDFT=  3500011 ScaDFX=  1.000000  1.000000  1.000000  1.000000
[...]
 ICtDFT= 12500011 ScaDFX=  1.000000  1.000000  1.000000  1.000000
 Range of M.O.s used for correlation:     8    66
 NBasis=    66 NAE=    18 NBE=    18 NFC=     7 NFV=     0
 NROrb=     59 NOA=    11 NOB=    11 NVA=    48 NVB=    48
 Fully direct method using O(ONN) memory.
 JobTyp=1 Pass  1:  I=   8 to  18 NPSUse=  1 ParTrn=F ParDer=F DoDerP=T.
 Spin components of T(2) and E(2):
     alpha-alpha T2 =       0.2035277041D-01 E2=     -0.6192854449D-01
     alpha-beta  T2 =       0.1202576864D+00 E2=     -0.3696684192D+00
     beta-beta   T2 =       0.2035277041D-01 E2=     -0.6192854449D-01
 ANorm=    0.1077480036D+01
 E2 =    -0.4935255081D+00 EUMP2 =    -0.57500143451368D+03
          IDoAtm=1111111
          Differentiating once with respect to electric field.
                with respect to dipole field.
          Differentiating once with respect to nuclear coordinates.
 Keep R1 ints in memory in canonical form, NReq=3353394.
          There are     1 degrees of freedom in the 1st order CPHF.  IDoFFX=0 NUNeed=     1.
 LinEq1:  Iter=  0 NonCon=     1 RMS=4.48D-03 Max=4.71D-02 NDo=     1
 AX will form     1 AO Fock derivatives at one time.
 LinEq1:  Iter=  1 NonCon=     1 RMS=1.28D-03 Max=1.34D-02 NDo=     1
 LinEq1:  Iter=  2 NonCon=     1 RMS=4.16D-04 Max=4.86D-03 NDo=     1
 LinEq1:  Iter=  3 NonCon=     1 RMS=7.22D-05 Max=5.93D-04 NDo=     1
 LinEq1:  Iter=  4 NonCon=     1 RMS=2.49D-05 Max=2.19D-04 NDo=     1
 LinEq1:  Iter=  5 NonCon=     1 RMS=7.61D-06 Max=6.10D-05 NDo=     1
 LinEq1:  Iter=  6 NonCon=     1 RMS=1.77D-06 Max=2.25D-05 NDo=     1
 LinEq1:  Iter=  7 NonCon=     1 RMS=4.32D-07 Max=7.19D-06 NDo=     1
 LinEq1:  Iter=  8 NonCon=     1 RMS=1.33D-07 Max=1.26D-06 NDo=     1
 LinEq1:  Iter=  9 NonCon=     1 RMS=3.00D-08 Max=3.72D-07 NDo=     1
 LinEq1:  Iter= 10 NonCon=     1 RMS=6.54D-09 Max=6.24D-08 NDo=     1
 LinEq1:  Iter= 11 NonCon=     1 RMS=1.31D-09 Max=8.72D-09 NDo=     1
 LinEq1:  Iter= 12 NonCon=     1 RMS=2.31D-10 Max=1.46D-09 NDo=     1
 LinEq1:  Iter= 13 NonCon=     0 RMS=5.43D-11 Max=3.24D-10 NDo=     1
 Linear equations converged to 1.000D-10 1.000D-09 after    13 iterations.
 End of Minotr F.D. properties file   721 does not exist.
 End of Minotr F.D. properties file   722 does not exist.
 End of Minotr F.D. properties file   788 does not exist.
 Symmetrizing basis deriv contribution to polar:
 IMax=3 JMax=2 DiffMx= 0.00D+00
 Calling FoFJK, ICntrl=  10002127 FMM=F ISym2X=0 I1Cent= 0 IOpClX= 0 NMat=1 NMatS=1 NMatT=0.
 -------------------------------------------------------------------
 Center     Atomic                   Forces (Hartrees/Bohr)
 Number     Number              X              Y              Z
 -------------------------------------------------------------------
      1       17           0.000341664   -0.000109565   -0.000107994
      2        6          -0.000055686    0.000160021    0.000155159
      3        1          -0.000014246    0.000018207    0.000016880
      4        1          -0.000010236    0.000008929    0.000022241
      5        1          -0.000017743    0.000015490    0.000005609
      6        8          -0.000193678   -0.000147817    0.000015307
      7        1          -0.000050074    0.000054735   -0.000107201
 -------------------------------------------------------------------
 Cartesian Forces:  Max     0.000341664 RMS     0.000113779
 IRC-IRC-IRC-IRC-IRC-IRC-IRC-IRC-IRC-IRC-IRC-IRC-IRC-IRC-IRC-IRC-IRC-IRC
 Error in corrector energy =          -0.0000000175
 Magnitude of corrector gradient =     0.0004966090
 Magnitude of analytic gradient =      0.0005214007
 Magnitude of difference =             0.0001229647
 Angle between gradients (degrees)=   13.5931
 Pt  9 Step number  10 out of a maximum of  20
 Modified Bulirsch-Stoer Extrapolation Cycles:
    EPS =    0.000000333333333
 Maximum DWI energy   std dev =  0.000000048 at pt    47
 Maximum DWI gradient std dev =  0.521675015 at pt   145
 CORRECTOR INTEGRATION CONVERGENCE:
   Recorrection delta-x convergence threshold:    0.001826
   Delta-x Convergence NOT Met
 IRC-IRC-IRC-IRC-IRC-IRC-IRC-IRC-IRC-IRC-IRC-IRC-IRC-IRC-IRC-IRC-IRC-IRC
                          Input orientation:                          
 ---------------------------------------------------------------------
 Center     Atomic      Atomic             Coordinates (Angstroms)
 Number     Number       Type             X           Y           Z
 ---------------------------------------------------------------------
      1         17           0       -1.433503   -0.172131   -0.109390
      2          6           0        0.163526    0.496896    0.676197
      3          1           0        0.070396    0.071044    1.706540
      4          1           0        1.787200    0.213916   -0.113441
      5          1           0       -0.122018    1.567244    0.826672
      6          8           0        2.731535   -0.051033   -0.410882
      7          1           0        2.682187   -0.982465   -0.159594
 ---------------------------------------------------------------------
                    Distance matrix (angstroms):
                    1          2          3          4          5
     1  Cl   0.000000
     2  C    1.901380   0.000000
     3  H    2.370327   1.118763   0.000000
     4  H    3.243759   1.827545   2.506024   0.000000
     5  H    2.370998   1.117955   1.746369   2.521988   0.000000
     6  O    4.177691   2.841942   3.402945   1.024909   3.506155
     7  H    4.195005   3.038208   3.378430   1.494811   3.916287
                    6          7
     6  O    0.000000
     7  H    0.965996   0.000000
 Symmetry turned off by external request.
 Stoichiometry    CH4ClO(1-)
 Framework group  C1[X(CH4ClO)]
 Deg. of freedom    15
 Full point group                 C1      NOp   1
 Rotational constants (GHZ):     26.6289503      2.4634048      2.3023449
 Standard basis: CC-pVDZ (5D, 7F)
    66 basis functions,   165 primitive gaussians,    69 cartesian basis functions
    18 alpha electrons       18 beta electrons
       nuclear repulsion energy        87.8542482016 Hartrees.
 NAtoms=    7 NActive=    7 NUniq=    7 SFac= 1.00D+00 NAtFMM=   60 NAOKFM=F Big=F
 Integral buffers will be    131072 words long.
 Raffenetti 1 integral format.
 Two-electron integral symmetry is turned off.
 One-electron integrals computed using PRISM.
 NBasis=    66 RedAO= T EigKep=  1.93D-02  NBF=    66
 NBsUse=    66 1.00D-06 EigRej= -1.00D+00 NBFU=    66
 Initial guess from the checkpoint file:  "/localscratch/rjackson.12067818.0/Gau-8784.chk"
 B after Tr=    -0.000043    0.000015    0.000009
         Rot=    1.000000    0.000046   -0.000001   -0.000004 Ang=   0.01 deg.
 ExpMin= 1.22D-01 ExpMax= 1.28D+05 ExpMxC= 1.24D+03 IAcc=3 IRadAn=         5 AccDes= 0.00D+00
 Harris functional with IExCor=  205 and IRadAn=       5 diagonalized for initial guess.
 HarFok:  IExCor=  205 AccDes= 0.00D+00 IRadAn=         5 IDoV= 1 UseB2=F ITyADJ=14
 ICtDFT=  3500011 ScaDFX=  1.000000  1.000000  1.000000  1.000000
 FoFCou: FMM=F IPFlag=           0 FMFlag=      100000 FMFlg1=           0
         NFxFlg=           0 DoJE=T BraDBF=F KetDBF=T FulRan=T
         wScrn=  0.000000 ICntrl=     500 IOpCl=  0 I1Cent=   200000004 NGrid=           0
         NMat0=    1 NMatS0=      1 NMatT0=    0 NMatD0=    1 NMtDS0=    0 NMtDT0=    0
 Symmetry not used in FoFCou.
 Keep R1 ints in memory in canonical form, NReq=3411075.
 Requested convergence on RMS density matrix=1.00D-08 within 256 cycles.
 Requested convergence on MAX density matrix=1.00D-06.
 Requested convergence on             energy=1.00D-06.
 No special actions if energy rises.
 SCF Done:  E(RHF) =  -574.507914034     A.U. after    7 cycles
            NFock=  7  Conv=0.52D-08     -V/T= 2.0000
 ExpMin= 1.22D-01 ExpMax= 1.28D+05 ExpMxC= 1.24D+03 IAcc=3 IRadAn=         7 AccDes= 0.00D+00
 HarFok:  IExCor=  205 AccDes= 0.00D+00 IRadAn=         7 IDoV=-2 UseB2=F ITyADJ=14
 ICtDFT= 12500011 ScaDFX=  1.000000  1.000000  1.000000  1.000000
 Range of M.O.s used for correlation:     8    66
 NBasis=    66 NAE=    18 NBE=    18 NFC=     7 NFV=     0
 NROrb=     59 NOA=    11 NOB=    11 NVA=    48 NVB=    48
 Fully direct method using O(ONN) memory.
 JobTyp=1 Pass  1:  I=   8 to  18 NPSUse=  1 ParTrn=F ParDer=F DoDerP=T.
 Spin components of T(2) and E(2):
     alpha-alpha T2 =       0.2035237138D-01 E2=     -0.6192806598D-01
     alpha-beta  T2 =       0.1202546910D+00 E2=     -0.3696643352D+00
     beta-beta   T2 =       0.2035237138D-01 E2=     -0.6192806598D-01
 ANorm=    0.1077478275D+01
 E2 =    -0.4935204672D+00 EUMP2 =    -0.57500143450145D+03
          IDoAtm=1111111
          Differentiating once with respect to electric field.
                with respect to dipole field.
          Differentiating once with respect to nuclear coordinates.
 Keep R1 ints in memory in canonical form, NReq=3353394.
          There are     1 degrees of freedom in the 1st order CPHF.  IDoFFX=0 NUNeed=     1.
 LinEq1:  Iter=  0 NonCon=     1 RMS=4.48D-03 Max=4.71D-02 NDo=     1
 AX will form     1 AO Fock derivatives at one time.
 LinEq1:  Iter=  1 NonCon=     1 RMS=1.28D-03 Max=1.34D-02 NDo=     1
 LinEq1:  Iter=  2 NonCon=     1 RMS=4.16D-04 Max=4.86D-03 NDo=     1
 LinEq1:  Iter=  3 NonCon=     1 RMS=7.22D-05 Max=5.93D-04 NDo=     1
 LinEq1:  Iter=  4 NonCon=     1 RMS=2.49D-05 Max=2.19D-04 NDo=     1
 LinEq1:  Iter=  5 NonCon=     1 RMS=7.61D-06 Max=6.10D-05 NDo=     1
 LinEq1:  Iter=  6 NonCon=     1 RMS=1.77D-06 Max=2.25D-05 NDo=     1
 LinEq1:  Iter=  7 NonCon=     1 RMS=4.32D-07 Max=7.19D-06 NDo=     1
 LinEq1:  Iter=  8 NonCon=     1 RMS=1.33D-07 Max=1.26D-06 NDo=     1
 LinEq1:  Iter=  9 NonCon=     1 RMS=3.00D-08 Max=3.72D-07 NDo=     1
 LinEq1:  Iter= 10 NonCon=     1 RMS=6.54D-09 Max=6.24D-08 NDo=     1
 LinEq1:  Iter= 11 NonCon=     1 RMS=1.31D-09 Max=8.72D-09 NDo=     1
 LinEq1:  Iter= 12 NonCon=     1 RMS=2.31D-10 Max=1.46D-09 NDo=     1
 LinEq1:  Iter= 13 NonCon=     0 RMS=5.43D-11 Max=3.24D-10 NDo=     1
 Linear equations converged to 1.000D-10 1.000D-09 after    13 iterations.
 End of Minotr F.D. properties file   721 does not exist.
 End of Minotr F.D. properties file   722 does not exist.
 End of Minotr F.D. properties file   788 does not exist.
 Symmetrizing basis deriv contribution to polar:
 IMax=3 JMax=2 DiffMx= 0.00D+00
 Calling FoFJK, ICntrl=  10002127 FMM=F ISym2X=0 I1Cent= 0 IOpClX= 0 NMat=1 NMatS=1 NMatT=0.
 -------------------------------------------------------------------
 Center     Atomic                   Forces (Hartrees/Bohr)
 Number     Number              X              Y              Z
 -------------------------------------------------------------------
      1       17           0.000345132   -0.000109709   -0.000105608
      2        6          -0.000061796    0.000167578    0.000161366
      3        1          -0.000013611    0.000017176    0.000011157
      4        1           0.000002907    0.000006942    0.000013316
      5        1          -0.000013264    0.000008966    0.000002799
      6        8          -0.000203742    0.000011162   -0.000016100
      7        1          -0.000055625   -0.000102114   -0.000066931
 -------------------------------------------------------------------
 Cartesian Forces:  Max     0.000345132 RMS     0.000111536
 IRC-IRC-IRC-IRC-IRC-IRC-IRC-IRC-IRC-IRC-IRC-IRC-IRC-IRC-IRC-IRC-IRC-IRC
 Error in corrector energy =          -0.0000000211
 Magnitude of corrector gradient =     0.0005099643
 Magnitude of analytic gradient =      0.0005111202
 Magnitude of difference =             0.0001128445
 Angle between gradients (degrees)=   12.6893
 Pt  9 Step number  11 out of a maximum of  20
 Modified Bulirsch-Stoer Extrapolation Cycles:
    EPS =    0.000000333333333
 Maximum DWI energy   std dev =  0.000000054 at pt    48
 Maximum DWI gradient std dev =  0.428266614 at pt   147
 CORRECTOR INTEGRATION CONVERGENCE:
   Recorrection delta-x convergence threshold:    0.001826
   Delta-x Convergence Met
 Point Number:   9          Path Number:   1
   CHANGE IN THE REACTION COORDINATE =    0.06569
   NET REACTION COORDINATE UP TO THIS POINT =    0.59231
  # OF POINTS ALONG THE PATH =   9
  # OF STEPS =  11

 Calculating another point on the path.
 PES minimum detected within a second-order step.
 Calculation of FORWARD path complete.
 Reaction path calculation complete.
 
 Energies reported relative to the TS energy of        -575.001338
 --------------------------------------------------------------------------
    Summary of reaction path following
 --------------------------------------------------------------------------
                        Energy    RxCoord
   1                    0.00000   0.00000
   2                   -0.00001   0.06552
   3                   -0.00002   0.13140
   4                   -0.00003   0.19729
   5                   -0.00004   0.26318
   6                   -0.00006   0.32906
   7                   -0.00007   0.39494
   8                   -0.00008   0.46076
   9                   -0.00009   0.52662
  10                   -0.00010   0.59231
 --------------------------------------------------------------------------
 
 Total number of points:                    9
 Total number of gradient calculations:    30
 Total number of Hessian calculations:      1
 IRC-IRC-IRC-IRC-IRC-IRC-IRC-IRC-IRC-IRC-IRC-IRC-IRC-IRC-IRC-IRC-IRC-IRC
                          Input orientation:                          
 ---------------------------------------------------------------------
 Center     Atomic      Atomic             Coordinates (Angstroms)
 Number     Number       Type             X           Y           Z
 ---------------------------------------------------------------------
      1         17           0       -1.433503   -0.172131   -0.109390
      2          6           0        0.163526    0.496896    0.676197
      3          1           0        0.070396    0.071044    1.706540
      4          1           0        1.787200    0.213916   -0.113441
      5          1           0       -0.122018    1.567244    0.826672
      6          8           0        2.731535   -0.051033   -0.410882
      7          1           0        2.682187   -0.982465   -0.159594
 ---------------------------------------------------------------------
                    Distance matrix (angstroms):
                    1          2          3          4          5
     1  Cl   0.000000
     2  C    1.901380   0.000000
     3  H    2.370327   1.118763   0.000000
     4  H    3.243759   1.827545   2.506024   0.000000
     5  H    2.370998   1.117955   1.746369   2.521988   0.000000
     6  O    4.177691   2.841942   3.402945   1.024909   3.506155
     7  H    4.195005   3.038208   3.378430   1.494811   3.916287
                    6          7
     6  O    0.000000
     7  H    0.965996   0.000000
 Symmetry turned off by external request.
 Stoichiometry    CH4ClO(1-)
 Framework group  C1[X(CH4ClO)]
 Deg. of freedom    15
 Full point group                 C1      NOp   1
 Rotational constants (GHZ):     26.6289503      2.4634048      2.3023449

 **********************************************************************

            Population analysis using the SCF density.

 **********************************************************************

 Alpha  occ. eigenvalues -- -104.58694 -20.32450 -11.02533 -10.31218  -7.77949
 Alpha  occ. eigenvalues --   -7.77720  -7.77704  -1.10277  -0.86298  -0.63234
 Alpha  occ. eigenvalues --   -0.45040  -0.36740  -0.33697  -0.28738  -0.27252
 Alpha  occ. eigenvalues --   -0.24296  -0.20767  -0.10656
 Alpha virt. eigenvalues --    0.36210   0.39984   0.43182   0.44734   0.58902
 Alpha virt. eigenvalues --    0.80918   0.86175   0.92523   0.93160   0.98403
 Alpha virt. eigenvalues --    0.99233   1.01979   1.05759   1.08377   1.08837
 Alpha virt. eigenvalues --    1.16914   1.18007   1.20709   1.23089   1.24736
 Alpha virt. eigenvalues --    1.38892   1.42419   1.45054   1.51478   1.56367
 Alpha virt. eigenvalues --    1.60030   1.62708   1.66786   1.75213   1.85270
 Alpha virt. eigenvalues --    1.93146   1.99995   2.16850   2.17804   2.22464
 Alpha virt. eigenvalues --    2.23987   2.34710   2.36192   2.56405   2.65774
 Alpha virt. eigenvalues --    2.83274   2.95863   2.98777   3.49268   3.52608
 Alpha virt. eigenvalues --    3.70204   4.03898   4.39046
          Condensed to atoms (all electrons):
               1          2          3          4          5          6
     1  Cl  17.431285   0.119828  -0.051120  -0.001889  -0.049850   0.000767
     2  C    0.119828   5.529334   0.373620   0.059426   0.375419  -0.060588
     3  H   -0.051120   0.373620   0.749185  -0.002864  -0.047367   0.001155
     4  H   -0.001889   0.059426  -0.002864   0.373605  -0.002964   0.367159
     5  H   -0.049850   0.375419  -0.047367  -0.002964   0.741105   0.001134
     6  O    0.000767  -0.060588   0.001155   0.367159   0.001134   7.802308
     7  H   -0.000573   0.018379  -0.000521  -0.057732  -0.000089   0.345223
               7
     1  Cl  -0.000573
     2  C    0.018379
     3  H   -0.000521
     4  H   -0.057732
     5  H   -0.000089
     6  O    0.345223
     7  H    0.600075
 Mulliken charges:
               1
     1  Cl  -0.448448
     2  C   -0.415417
     3  H   -0.022087
     4  H    0.265259
     5  H   -0.017387
     6  O   -0.457157
     7  H    0.095238
 Sum of Mulliken charges =  -1.00000
 Mulliken charges with hydrogens summed into heavy atoms:
               1
     1  Cl  -0.448448
     2  C   -0.454891
     6  O   -0.096660
 APT charges:
               1
     1  Cl  -0.328411
     2  C   -0.928116
     3  H    0.190942
     4  H   -0.123526
     5  H    0.204425
     6  O   -0.210444
     7  H    0.195131
 Sum of APT charges =  -1.00000
 APT charges with hydrogens summed into heavy atoms:
               1
     1  Cl  -0.328411
     2  C   -0.532750
     6  O   -0.138839
 Electronic spatial extent (au):  <R**2>=            503.3819
 Charge=             -1.0000 electrons
 Dipole moment (field-independent basis, Debye):
    X=             -1.6370    Y=             -1.1488    Z=              0.7673  Tot=              2.1420
 Quadrupole moment (field-independent basis, Debye-Ang):
   XX=            -48.8020   YY=            -27.8652   ZZ=            -30.7276
   XY=             -3.7439   XZ=              2.8650   YZ=             -0.3605
 Traceless Quadrupole moment (field-independent basis, Debye-Ang):
   XX=            -13.0037   YY=              7.9331   ZZ=              5.0707
   XY=             -3.7439   XZ=              2.8650   YZ=             -0.3605
 Octapole moment (field-independent basis, Debye-Ang**2):
  XXX=            -38.1237  YYY=             -6.0905  ZZZ=             -7.1116  XYY=              4.4421
  XXY=             -9.8418  XXZ=              6.6054  XZZ=             -2.5152  YZZ=             -1.8750
  YYZ=             -2.9041  XYZ=             -0.0220
 Hexadecapole moment (field-independent basis, Debye-Ang**3):
 XXXX=           -646.1697 YYYY=            -56.6605 ZZZZ=            -75.7895 XXXY=            -28.4645
 XXXZ=             40.8618 YYYX=             -9.9616 YYYZ=            -11.4223 ZZZX=             14.4764
 ZZZY=            -12.4109 XXYY=            -81.6125 XXZZ=           -103.2572 YYZZ=            -22.3848
 XXYZ=             -2.7412 YYXZ=              3.5817 ZZXY=             -0.9214
 N-N= 8.785424820164D+01 E-N=-1.550326396953D+03  KE= 5.745073203570D+02
  Exact polarizability:   0.000   0.000   0.000   0.000   0.000   0.000
 Approx polarizability:  31.097   2.247  25.181   2.851   0.929  22.744

 This type of calculation cannot be archived.


 Cherishing children is the mark of a civilized society.
 -- Joan Ganz Cooney
 Job cpu time:       0 days  0 hours  3 minutes 27.4 seconds.
 File lengths (MBytes):  RWF=    214 Int=      0 D2E=      0 Chk=      2 Scr=      1
 Normal termination of Gaussian 09 at Tue Feb 26 15:48:49 2019.
