 Entering Gaussian System, Link 0=g09
 Initial command:
 /opt/software/gaussian/g09.e01/l1.exe "/localscratch/rjackson.18103347.0/Gau-79628.inp" -scrdir="/localscratch/rjackson.18103347.0/"
 Entering Link 1 = /opt/software/gaussian/g09.e01/l1.exe PID=     79629.
  
 Copyright (c) 1988,1990,1992,1993,1995,1998,2003,2009,2015,
            Gaussian, Inc.  All Rights Reserved.
  
 This is part of the Gaussian(R) 09 program.  It is based on
 the Gaussian(R) 03 system (copyright 2003, Gaussian, Inc.),
 the Gaussian(R) 98 system (copyright 1998, Gaussian, Inc.),
 the Gaussian(R) 94 system (copyright 1995, Gaussian, Inc.),
 the Gaussian 92(TM) system (copyright 1992, Gaussian, Inc.),
 the Gaussian 90(TM) system (copyright 1990, Gaussian, Inc.),
 the Gaussian 88(TM) system (copyright 1988, Gaussian, Inc.),
 the Gaussian 86(TM) system (copyright 1986, Carnegie Mellon
 University), and the Gaussian 82(TM) system (copyright 1983,
 Carnegie Mellon University). Gaussian is a federally registered
 trademark of Gaussian, Inc.
  
 This software contains proprietary and confidential information,
 including trade secrets, belonging to Gaussian, Inc.
  
 This software is provided under written license and may be
 used, copied, transmitted, or stored only in accord with that
 written license.
  
 The following legend is applicable only to US Government
 contracts under FAR:
  
                    RESTRICTED RIGHTS LEGEND
  
 Use, reproduction and disclosure by the US Government is
 subject to restrictions as set forth in subparagraphs (a)
 and (c) of the Commercial Computer Software - Restricted
 Rights clause in FAR 52.227-19.
  
 Gaussian, Inc.
 340 Quinnipiac St., Bldg. 40, Wallingford CT 06492
  
  
 ---------------------------------------------------------------
 Warning -- This program may not be used in any manner that
 competes with the business of Gaussian, Inc. or will provide
 assistance to any competitor of Gaussian, Inc.  The licensee
 of this program is prohibited from giving any competitor of
 Gaussian, Inc. access to this program.  By using this program,
 the user acknowledges that Gaussian, Inc. is engaged in the
 business of creating and licensing software in the field of
 computational chemistry and represents and warrants to the
 licensee that it is not a competitor of Gaussian, Inc. and that
 it will not use this program in any manner prohibited above.
 ---------------------------------------------------------------
  

 Cite this work as:
 Gaussian 09, Revision E.01,
 M. J. Frisch, G. W. Trucks, H. B. Schlegel, G. E. Scuseria, 
 M. A. Robb, J. R. Cheeseman, G. Scalmani, V. Barone, B. Mennucci, 
 G. A. Petersson, H. Nakatsuji, M. Caricato, X. Li, H. P. Hratchian, 
 A. F. Izmaylov, J. Bloino, G. Zheng, J. L. Sonnenberg, M. Hada, 
 M. Ehara, K. Toyota, R. Fukuda, J. Hasegawa, M. Ishida, T. Nakajima, 
 Y. Honda, O. Kitao, H. Nakai, T. Vreven, J. A. Montgomery, Jr., 
 J. E. Peralta, F. Ogliaro, M. Bearpark, J. J. Heyd, E. Brothers, 
 K. N. Kudin, V. N. Staroverov, T. Keith, R. Kobayashi, J. Normand, 
 K. Raghavachari, A. Rendell, J. C. Burant, S. S. Iyengar, J. Tomasi, 
 M. Cossi, N. Rega, J. M. Millam, M. Klene, J. E. Knox, J. B. Cross, 
 V. Bakken, C. Adamo, J. Jaramillo, R. Gomperts, R. E. Stratmann, 
 O. Yazyev, A. J. Austin, R. Cammi, C. Pomelli, J. W. Ochterski, 
 R. L. Martin, K. Morokuma, V. G. Zakrzewski, G. A. Voth, 
 P. Salvador, J. J. Dannenberg, S. Dapprich, A. D. Daniels, 
 O. Farkas, J. B. Foresman, J. V. Ortiz, J. Cioslowski, 
 and D. J. Fox, Gaussian, Inc., Wallingford CT, 2013.
 
 ******************************************
 Gaussian 09:  EM64L-G09RevE.01 30-Nov-2015
                12-Mar-2019 
 ******************************************
 ----------------------------------------------------------------------
 # b3lyp/aug-cc-PVDZ opt(tight) integral(grid=superfine) scf(maxcyc=256
 )
 ----------------------------------------------------------------------
 1/7=10,14=-1,18=20,19=15,26=5,38=1/1,3;
 2/9=110,12=2,17=6,18=5,40=1/2;
 3/5=16,7=10,11=2,16=1,25=1,30=1,71=1,74=-5,75=-7/1,2,3;
 4//1;
 5/5=2,7=256,38=5/2;
 6/7=2,8=2,9=2,10=2,28=1/1;
 7//1,2,3,16;
 1/7=10,14=-1,18=20,19=15,26=5/3(2);
 2/9=110/2;
 99//99;
 2/9=110/2;
 3/5=16,7=10,11=2,16=1,25=1,30=1,71=1,74=-5,75=-7/1,2,3;
 4/5=5,16=3,69=1/1;
 5/5=2,7=256,38=5/2;
 7//1,2,3,16;
 1/7=10,14=-1,18=20,19=15,26=5/3(-5);
 2/9=110/2;
 6/7=2,8=2,9=2,10=2,19=2,28=1/1;
 99/9=1/99;
 -------------------------
 OH-chloromethane_reactant
 -------------------------
 Symbolic Z-matrix:
 Charge = -1 Multiplicity = 1
 Cl                   -0.80197  -2.1565   -0.30871 
 C                     1.24695   0.66266   0.16622 
 H                     1.05936   0.92983   1.23629 
 H                     0.27948   0.78955  -0.36002 
 H                     1.95441   1.42519  -0.22647 
 O                     1.7856   -0.61437  -0.00599 
 H                     0.99423  -1.22818  -0.08753 
 
 Add virtual bond connecting atoms H7         and Cl1        Dist= 3.84D+00.

 GradGradGradGradGradGradGradGradGradGradGradGradGradGradGradGradGradGrad
 Berny optimization.
 Initialization pass.
                           ----------------------------
                           !    Initial Parameters    !
                           ! (Angstroms and Degrees)  !
 --------------------------                            --------------------------
 ! Name  Definition              Value          Derivative Info.                !
 --------------------------------------------------------------------------------
 ! R1    R(1,7)                  2.034          estimate D2E/DX2                !
 ! R2    R(2,3)                  1.1188         estimate D2E/DX2                !
 ! R3    R(2,4)                  1.1086         estimate D2E/DX2                !
 ! R4    R(2,5)                  1.1118         estimate D2E/DX2                !
 ! R5    R(2,6)                  1.3966         estimate D2E/DX2                !
 ! R6    R(6,7)                  1.0048         estimate D2E/DX2                !
 ! A1    A(3,2,4)              106.2817         estimate D2E/DX2                !
 ! A2    A(3,2,5)              106.3039         estimate D2E/DX2                !
 ! A3    A(3,2,6)              113.6382         estimate D2E/DX2                !
 ! A4    A(4,2,5)              108.0077         estimate D2E/DX2                !
 ! A5    A(4,2,6)              112.5007         estimate D2E/DX2                !
 ! A6    A(5,2,6)              109.7639         estimate D2E/DX2                !
 ! A7    A(2,6,7)              105.3558         estimate D2E/DX2                !
 ! A8    L(1,7,6,4,-1)         169.46           estimate D2E/DX2                !
 ! A9    L(1,7,6,4,-2)         180.0043         estimate D2E/DX2                !
 ! D1    D(3,2,6,7)             89.0441         estimate D2E/DX2                !
 ! D2    D(4,2,6,7)            -31.7902         estimate D2E/DX2                !
 ! D3    D(5,2,6,7)           -152.0816         estimate D2E/DX2                !
 --------------------------------------------------------------------------------
 Trust Radius=3.00D-01 FncErr=1.00D-07 GrdErr=1.00D-07
 Number of steps in this run=     28 maximum allowed number of steps=    100.
 GradGradGradGradGradGradGradGradGradGradGradGradGradGradGradGradGradGrad

                          Input orientation:                          
 ---------------------------------------------------------------------
 Center     Atomic      Atomic             Coordinates (Angstroms)
 Number     Number       Type             X           Y           Z
 ---------------------------------------------------------------------
      1         17           0       -0.801969   -2.156499   -0.308710
      2          6           0        1.246951    0.662661    0.166216
      3          1           0        1.059357    0.929831    1.236292
      4          1           0        0.279481    0.789546   -0.360023
      5          1           0        1.954413    1.425191   -0.226471
      6          8           0        1.785598   -0.614368   -0.005990
      7          1           0        0.994229   -1.228182   -0.087534
 ---------------------------------------------------------------------
                    Distance matrix (angstroms):
                    1          2          3          4          5
     1  Cl   0.000000
     2  C    3.517285   0.000000
     3  H    3.921352   1.118764   0.000000
     4  H    3.138686   1.108614   1.782164   0.000000
     5  H    4.520277   1.111826   1.784988   1.796463   0.000000
     6  O    3.027426   1.396638   2.110744   2.089187   2.058376
     7  H    2.033966   1.924460   2.532544   2.157856   2.825181
                    6          7
     6  O    0.000000
     7  H    1.004829   0.000000
 Stoichiometry    CH4ClO(1-)
 Framework group  C1[X(CH4ClO)]
 Deg. of freedom    15
 Full point group                 C1      NOp   1
 Largest Abelian subgroup         C1      NOp   1
 Largest concise Abelian subgroup C1      NOp   1
                         Standard orientation:                         
 ---------------------------------------------------------------------
 Center     Atomic      Atomic             Coordinates (Angstroms)
 Number     Number       Type             X           Y           Z
 ---------------------------------------------------------------------
      1         17           0        1.632847   -0.074873   -0.000654
      2          6           0       -1.859660   -0.491629   -0.002446
      3          1           0       -2.063210   -0.894672    1.021154
      4          1           0       -1.232392   -1.248265   -0.515343
      5          1           0       -2.841562   -0.449639   -0.522315
      6          8           0       -1.272650    0.775653    0.001219
      7          1           0       -0.282069    0.609973    0.032542
 ---------------------------------------------------------------------
 Rotational constants (GHZ):     29.6035547      2.8800978      2.6689488
 Standard basis: Aug-CC-pVDZ (5D, 7F)
 There are   115 symmetry adapted cartesian basis functions of A   symmetry.
 There are   109 symmetry adapted basis functions of A   symmetry.
   109 basis functions,   211 primitive gaussians,   115 cartesian basis functions
    18 alpha electrons       18 beta electrons
       nuclear repulsion energy        90.9169619729 Hartrees.
 NAtoms=    7 NActive=    7 NUniq=    7 SFac= 1.00D+00 NAtFMM=   60 NAOKFM=F Big=F
 Integral buffers will be    131072 words long.
 Raffenetti 2 integral format.
 Two-electron integral symmetry is turned on.
 One-electron integrals computed using PRISM.
 NBasis=   109 RedAO= T EigKep=  5.25D-04  NBF=   109
 NBsUse=   109 1.00D-06 EigRej= -1.00D+00 NBFU=   109
 ExpMin= 2.97D-02 ExpMax= 1.28D+05 ExpMxC= 1.24D+03 IAcc=3 IRadAn=         7 AccDes= 0.00D+00
 Harris functional with IExCor=  402 and IRadAn=       7 diagonalized for initial guess.
 HarFok:  IExCor=  402 AccDes= 0.00D+00 IRadAn=         7 IDoV= 1 UseB2=F ITyADJ=14
 ICtDFT=  3500011 ScaDFX=  1.000000  1.000000  1.000000  1.000000
 FoFCou: FMM=F IPFlag=           0 FMFlag=      100000 FMFlg1=           0
         NFxFlg=           0 DoJE=T BraDBF=F KetDBF=T FulRan=T
         wScrn=  0.000000 ICntrl=     500 IOpCl=  0 I1Cent=   200000004 NGrid=           0
         NMat0=    1 NMatS0=      1 NMatT0=    0 NMatD0=    1 NMtDS0=    0 NMtDT0=    0
 Petite list used in FoFCou.
 Keep R1 ints in memory in canonical form, NReq=19024677.
 Requested convergence on RMS density matrix=1.00D-08 within 256 cycles.
 Requested convergence on MAX density matrix=1.00D-06.
 Requested convergence on             energy=1.00D-06.
 No special actions if energy rises.
 SCF Done:  E(RB3LYP) =  -576.063684866     A.U. after   11 cycles
            NFock= 11  Conv=0.31D-08     -V/T= 2.0031

 **********************************************************************

            Population analysis using the SCF density.

 **********************************************************************

 Orbital symmetries:
       Occupied  (A) (A) (A) (A) (A) (A) (A) (A) (A) (A) (A) (A)
                 (A) (A) (A) (A) (A) (A)
       Virtual   (A) (A) (A) (A) (A) (A) (A) (A) (A) (A) (A) (A)
                 (A) (A) (A) (A) (A) (A) (A) (A) (A) (A) (A) (A)
                 (A) (A) (A) (A) (A) (A) (A) (A) (A) (A) (A) (A)
                 (A) (A) (A) (A) (A) (A) (A) (A) (A) (A) (A) (A)
                 (A) (A) (A) (A) (A) (A) (A) (A) (A) (A) (A) (A)
                 (A) (A) (A) (A) (A) (A) (A) (A) (A) (A) (A) (A)
                 (A) (A) (A) (A) (A) (A) (A) (A) (A) (A) (A) (A)
                 (A) (A) (A) (A) (A) (A) (A)
 The electronic state is 1-A.
 Alpha  occ. eigenvalues -- -101.26034 -18.96992 -10.07754  -9.17600  -6.93292
 Alpha  occ. eigenvalues --   -6.93205  -6.93201  -0.84875  -0.52457  -0.51397
 Alpha  occ. eigenvalues --   -0.33894  -0.28028  -0.27024  -0.17721  -0.10882
 Alpha  occ. eigenvalues --   -0.06746  -0.06103  -0.06028
 Alpha virt. eigenvalues --    0.09990   0.12443   0.13979   0.14850   0.18607
 Alpha virt. eigenvalues --    0.20826   0.21548   0.22862   0.23849   0.25133
 Alpha virt. eigenvalues --    0.26613   0.28592   0.29148   0.29925   0.30278
 Alpha virt. eigenvalues --    0.31450   0.35895   0.38419   0.39835   0.41399
 Alpha virt. eigenvalues --    0.42466   0.44924   0.47450   0.47871   0.48271
 Alpha virt. eigenvalues --    0.50992   0.53193   0.54572   0.56682   0.57189
 Alpha virt. eigenvalues --    0.60933   0.61394   0.62597   0.66062   0.67405
 Alpha virt. eigenvalues --    0.67938   0.70331   0.72621   0.73610   0.75654
 Alpha virt. eigenvalues --    0.76374   0.80444   0.86898   0.89575   0.91221
 Alpha virt. eigenvalues --    0.96624   0.97309   0.99403   1.02557   1.06400
 Alpha virt. eigenvalues --    1.12243   1.14800   1.19935   1.27181   1.32915
 Alpha virt. eigenvalues --    1.36581   1.39605   1.40907   1.42831   1.47483
 Alpha virt. eigenvalues --    1.48520   1.52445   1.54988   1.62164   1.64228
 Alpha virt. eigenvalues --    1.66963   1.73604   1.77744   1.83000   1.85413
 Alpha virt. eigenvalues --    1.95268   1.98640   2.04835   2.06242   2.08712
 Alpha virt. eigenvalues --    2.14063   2.25671   2.30889   2.37442   2.50792
 Alpha virt. eigenvalues --    2.54869   2.55645   2.67449   2.74802   2.85110
 Alpha virt. eigenvalues --    3.04417   3.53461   3.57010   3.62616   3.69563
 Alpha virt. eigenvalues --    4.05761
          Condensed to atoms (all electrons):
               1          2          3          4          5          6
     1  Cl  17.906302  -0.003923   0.006499   0.001090  -0.000660  -0.079498
     2  C   -0.003923   3.870226   0.256345   0.267360   0.277793   0.147790
     3  H    0.006499   0.256345   1.619291  -0.205408  -0.323035  -0.020930
     4  H    0.001090   0.267360  -0.205408   1.669842  -0.362326  -0.039612
     5  H   -0.000660   0.277793  -0.323035  -0.362326   1.912107  -0.145868
     6  O   -0.079498   0.147790  -0.020930  -0.039612  -0.145868   8.306304
     7  H    0.075921  -0.053176  -0.022548  -0.007640   0.033150   0.280021
               7
     1  Cl   0.075921
     2  C   -0.053176
     3  H   -0.022548
     4  H   -0.007640
     5  H    0.033150
     6  O    0.280021
     7  H    0.553242
 Mulliken charges:
               1
     1  Cl  -0.905731
     2  C    1.237586
     3  H   -0.310213
     4  H   -0.323306
     5  H   -0.391161
     6  O   -0.448206
     7  H    0.141030
 Sum of Mulliken charges =  -1.00000
 Mulliken charges with hydrogens summed into heavy atoms:
               1
     1  Cl  -0.905731
     2  C    0.212906
     6  O   -0.307175
 Electronic spatial extent (au):  <R**2>=            453.3329
 Charge=             -1.0000 electrons
 Dipole moment (field-independent basis, Debye):
    X=             -4.5426    Y=             -1.1188    Z=             -0.0349  Tot=              4.6785
 Quadrupole moment (field-independent basis, Debye-Ang):
   XX=            -46.0528   YY=            -33.2328   ZZ=            -31.7187
   XY=              2.9825   XZ=              0.1412   YZ=              0.1340
 Traceless Quadrupole moment (field-independent basis, Debye-Ang):
   XX=             -9.0514   YY=              3.7686   ZZ=              5.2828
   XY=              2.9825   XZ=              0.1412   YZ=              0.1340
 Octapole moment (field-independent basis, Debye-Ang**2):
  XXX=            -24.0107  YYY=              2.0811  ZZZ=              0.1051  XYY=             -0.1963
  XXY=             -0.8869  XXZ=             -0.6649  XZZ=             -3.7128  YZZ=              0.8436
  YYZ=             -0.2452  XYZ=              0.0086
 Hexadecapole moment (field-independent basis, Debye-Ang**3):
 XXXX=           -593.1043 YYYY=            -93.0881 ZZZZ=            -54.1712 XXXY=             -2.3896
 XXXZ=              2.5544 YYYX=             -0.5882 YYYZ=              0.5107 ZZZX=             -0.1779
 ZZZY=              0.0798 XXYY=           -115.3034 XXZZ=           -103.5076 YYZZ=            -25.0591
 XXYZ=             -0.0161 YYXZ=              0.2086 ZZXY=             -0.9471
 N-N= 9.091696197287D+01 E-N=-1.555856972437D+03  KE= 5.742561584962D+02
 Calling FoFJK, ICntrl=      2127 FMM=F ISym2X=0 I1Cent= 0 IOpClX= 0 NMat=1 NMatS=1 NMatT=0.
 ***** Axes restored to original set *****
 -------------------------------------------------------------------
 Center     Atomic                   Forces (Hartrees/Bohr)
 Number     Number              X              Y              Z
 -------------------------------------------------------------------
      1       17          -0.001668642   -0.001342048   -0.000097229
      2        6          -0.002558062    0.015599661    0.002388279
      3        1           0.001381656   -0.003494152   -0.003182855
      4        1           0.003040236   -0.001741175    0.000435157
      5        1          -0.001600747   -0.003486292    0.000624239
      6        8          -0.004312708   -0.006430219   -0.000338561
      7        1           0.005718268    0.000894226    0.000170970
 -------------------------------------------------------------------
 Cartesian Forces:  Max     0.015599661 RMS     0.004394803

 GradGradGradGradGradGradGradGradGradGradGradGradGradGradGradGradGradGrad
 Berny optimization.
 FormGI is forming the generalized inverse of G from B-inverse, IUseBI=4.
 Internal  Forces:  Max     0.006953741 RMS     0.003058279
 Search for a local minimum.
 Step number   1 out of a maximum of   28
 All quantities printed in internal units (Hartrees-Bohrs-Radians)
 Mixed Optimization -- RFO/linear search
 Second derivative matrix not updated -- first step.
 The second derivative matrix:
                          R1        R2        R3        R4        R5
           R1           0.05374
           R2           0.00000   0.31689
           R3           0.00000   0.00000   0.32747
           R4           0.00000   0.00000   0.00000   0.32407
           R5           0.00000   0.00000   0.00000   0.00000   0.46182
           R6           0.00000   0.00000   0.00000   0.00000   0.00000
           A1           0.00000   0.00000   0.00000   0.00000   0.00000
           A2           0.00000   0.00000   0.00000   0.00000   0.00000
           A3           0.00000   0.00000   0.00000   0.00000   0.00000
           A4           0.00000   0.00000   0.00000   0.00000   0.00000
           A5           0.00000   0.00000   0.00000   0.00000   0.00000
           A6           0.00000   0.00000   0.00000   0.00000   0.00000
           A7           0.00000   0.00000   0.00000   0.00000   0.00000
           A8           0.00000   0.00000   0.00000   0.00000   0.00000
           A9           0.00000   0.00000   0.00000   0.00000   0.00000
           D1           0.00000   0.00000   0.00000   0.00000   0.00000
           D2           0.00000   0.00000   0.00000   0.00000   0.00000
           D3           0.00000   0.00000   0.00000   0.00000   0.00000
                          R6        A1        A2        A3        A4
           R6           0.46849
           A1           0.00000   0.16000
           A2           0.00000   0.00000   0.16000
           A3           0.00000   0.00000   0.00000   0.16000
           A4           0.00000   0.00000   0.00000   0.00000   0.16000
           A5           0.00000   0.00000   0.00000   0.00000   0.00000
           A6           0.00000   0.00000   0.00000   0.00000   0.00000
           A7           0.00000   0.00000   0.00000   0.00000   0.00000
           A8           0.00000   0.00000   0.00000   0.00000   0.00000
           A9           0.00000   0.00000   0.00000   0.00000   0.00000
           D1           0.00000   0.00000   0.00000   0.00000   0.00000
           D2           0.00000   0.00000   0.00000   0.00000   0.00000
           D3           0.00000   0.00000   0.00000   0.00000   0.00000
                          A5        A6        A7        A8        A9
           A5           0.16000
           A6           0.00000   0.16000
           A7           0.00000   0.00000   0.16000
           A8           0.00000   0.00000   0.00000   0.00964
           A9           0.00000   0.00000   0.00000   0.00000   0.00964
           D1           0.00000   0.00000   0.00000   0.00000   0.00000
           D2           0.00000   0.00000   0.00000   0.00000   0.00000
           D3           0.00000   0.00000   0.00000   0.00000   0.00000
                          D1        D2        D3
           D1           0.01736
           D2           0.00000   0.01736
           D3           0.00000   0.00000   0.01736
 ITU=  0
     Eigenvalues ---    0.00964   0.00964   0.01736   0.05374   0.09884
     Eigenvalues ---    0.10229   0.16000   0.16000   0.16000   0.16000
     Eigenvalues ---    0.31689   0.32407   0.32747   0.46182   0.46849
 RFO step:  Lambda=-1.05412949D-03 EMin= 9.64499569D-03
 Linear search not attempted -- first point.
 Iteration  1 RMS(Cart)=  0.12196510 RMS(Int)=  0.00702111
 Iteration  2 RMS(Cart)=  0.00849250 RMS(Int)=  0.00004990
 Iteration  3 RMS(Cart)=  0.00005792 RMS(Int)=  0.00003709
 Iteration  4 RMS(Cart)=  0.00000000 RMS(Int)=  0.00003709
 Variable       Old X    -DE/DX   Delta X   Delta X   Delta X     New X
                                 (Linear)    (Quad)   (Total)
    R1        3.84364   0.00210   0.00000   0.03827   0.03827   3.88191
    R2        2.11416  -0.00411   0.00000  -0.01293  -0.01293   2.10123
    R3        2.09498  -0.00306   0.00000  -0.00932  -0.00932   2.08565
    R4        2.10105  -0.00363   0.00000  -0.01117  -0.01117   2.08988
    R5        2.63926   0.00622   0.00000   0.01344   0.01344   2.65271
    R6        1.89885  -0.00292   0.00000  -0.00622  -0.00622   1.89263
    A1        1.85497   0.00241   0.00000   0.01436   0.01427   1.86924
    A2        1.85535   0.00234   0.00000   0.01520   0.01515   1.87050
    A3        1.98336  -0.00315   0.00000  -0.01955  -0.01962   1.96374
    A4        1.88509   0.00122   0.00000   0.00751   0.00748   1.89257
    A5        1.96351  -0.00147   0.00000  -0.00949  -0.00955   1.95395
    A6        1.91574  -0.00088   0.00000  -0.00511  -0.00516   1.91058
    A7        1.83880   0.00695   0.00000   0.04318   0.04318   1.88198
    A8        2.95764   0.00169   0.00000   0.15821   0.15821   3.11584
    A9        3.14167  -0.00027   0.00000  -0.02498  -0.02498   3.11669
    D1        1.55411  -0.00050   0.00000  -0.01853  -0.01850   1.53561
    D2       -0.55484  -0.00022   0.00000  -0.01578  -0.01582  -0.57066
    D3       -2.65432  -0.00019   0.00000  -0.01553  -0.01552  -2.66984
         Item               Value     Threshold  Converged?
 Maximum Force            0.006954     0.000015     NO 
 RMS     Force            0.003058     0.000010     NO 
 Maximum Displacement     0.374577     0.000060     NO 
 RMS     Displacement     0.126674     0.000040     NO 
 Predicted change in Energy=-5.436051D-04
 GradGradGradGradGradGradGradGradGradGradGradGradGradGradGradGradGradGrad

                          Input orientation:                          
 ---------------------------------------------------------------------
 Center     Atomic      Atomic             Coordinates (Angstroms)
 Number     Number       Type             X           Y           Z
 ---------------------------------------------------------------------
      1         17           0       -0.783694   -2.354717   -0.286328
      2          6           0        1.260851    0.706870    0.169152
      3          1           0        1.074904    0.943086    1.239665
      4          1           0        0.321107    0.904656   -0.374790
      5          1           0        2.029910    1.414523   -0.192553
      6          8           0        1.710025   -0.609463   -0.020671
      7          1           0        0.904957   -1.196776   -0.120695
 ---------------------------------------------------------------------
                    Distance matrix (angstroms):
                    1          2          3          4          5
     1  Cl   0.000000
     2  C    3.709574   0.000000
     3  H    4.081488   1.111923   0.000000
     4  H    3.442662   1.103680   1.782177   0.000000
     5  H    4.704501   1.105918   1.784808   1.792535   0.000000
     6  O    3.055342   1.403753   2.098150   2.084957   2.056304
     7  H    2.054216   1.958198   2.541353   2.195782   2.844216
                    6          7
     6  O    0.000000
     7  H    1.001537   0.000000
 Stoichiometry    CH4ClO(1-)
 Framework group  C1[X(CH4ClO)]
 Deg. of freedom    15
 Full point group                 C1      NOp   1
 Largest Abelian subgroup         C1      NOp   1
 Largest concise Abelian subgroup C1      NOp   1
                         Standard orientation:                         
 ---------------------------------------------------------------------
 Center     Atomic      Atomic             Coordinates (Angstroms)
 Number     Number       Type             X           Y           Z
 ---------------------------------------------------------------------
      1         17           0        1.697435   -0.080525    0.000141
      2          6           0       -1.993870   -0.448225   -0.002295
      3          1           0       -2.180626   -0.839134    1.021759
      4          1           0       -1.490026   -1.250221   -0.568912
      5          1           0       -2.980584   -0.259967   -0.464906
      6          8           0       -1.245786    0.739569    0.003914
      7          1           0       -0.275647    0.491040   -0.007885
 ---------------------------------------------------------------------
 Rotational constants (GHZ):     32.7986395      2.6601533      2.4994421
 Standard basis: Aug-CC-pVDZ (5D, 7F)
 There are   115 symmetry adapted cartesian basis functions of A   symmetry.
 There are   109 symmetry adapted basis functions of A   symmetry.
   109 basis functions,   211 primitive gaussians,   115 cartesian basis functions
    18 alpha electrons       18 beta electrons
       nuclear repulsion energy        89.3911230816 Hartrees.
 NAtoms=    7 NActive=    7 NUniq=    7 SFac= 1.00D+00 NAtFMM=   60 NAOKFM=F Big=F
 Integral buffers will be    131072 words long.
 Raffenetti 2 integral format.
 Two-electron integral symmetry is turned on.
 One-electron integrals computed using PRISM.
 NBasis=   109 RedAO= T EigKep=  5.24D-04  NBF=   109
 NBsUse=   109 1.00D-06 EigRej= -1.00D+00 NBFU=   109
 Initial guess from the checkpoint file:  "/localscratch/rjackson.18103347.0/Gau-79629.chk"
 B after Tr=     0.000000   -0.000000   -0.000000
         Rot=    0.999954   -0.003747   -0.000922    0.008823 Ang=  -1.10 deg.
 ExpMin= 2.97D-02 ExpMax= 1.28D+05 ExpMxC= 1.24D+03 IAcc=3 IRadAn=         5 AccDes= 0.00D+00
 Harris functional with IExCor=  402 and IRadAn=       5 diagonalized for initial guess.
 HarFok:  IExCor=  402 AccDes= 0.00D+00 IRadAn=         5 IDoV= 1 UseB2=F ITyADJ=14
 ICtDFT=  3500011 ScaDFX=  1.000000  1.000000  1.000000  1.000000
 FoFCou: FMM=F IPFlag=           0 FMFlag=      100000 FMFlg1=           0
         NFxFlg=           0 DoJE=T BraDBF=F KetDBF=T FulRan=T
         wScrn=  0.000000 ICntrl=     500 IOpCl=  0 I1Cent=   200000004 NGrid=           0
         NMat0=    1 NMatS0=      1 NMatT0=    0 NMatD0=    1 NMtDS0=    0 NMtDT0=    0
 Petite list used in FoFCou.
 Keep R1 ints in memory in canonical form, NReq=19024677.
 Requested convergence on RMS density matrix=1.00D-08 within 256 cycles.
 Requested convergence on MAX density matrix=1.00D-06.
 Requested convergence on             energy=1.00D-06.
 No special actions if energy rises.
 SCF Done:  E(RB3LYP) =  -576.063916555     A.U. after   10 cycles
            NFock= 10  Conv=0.44D-08     -V/T= 2.0031
 Calling FoFJK, ICntrl=      2127 FMM=F ISym2X=0 I1Cent= 0 IOpClX= 0 NMat=1 NMatS=1 NMatT=0.
 ***** Axes restored to original set *****
 -------------------------------------------------------------------
 Center     Atomic                   Forces (Hartrees/Bohr)
 Number     Number              X              Y              Z
 -------------------------------------------------------------------
      1       17          -0.001085524    0.000363998   -0.000308939
      2        6          -0.001236497    0.002772609    0.001972742
      3        1           0.000112162   -0.000746204   -0.000699045
      4        1           0.000008973    0.000346539   -0.000716250
      5        1          -0.000348970   -0.001208109   -0.000181674
      6        8          -0.001190240   -0.001406173   -0.001789997
      7        1           0.003740096   -0.000122661    0.001723162
 -------------------------------------------------------------------
 Cartesian Forces:  Max     0.003740096 RMS     0.001403916

 GradGradGradGradGradGradGradGradGradGradGradGradGradGradGradGradGradGrad
 Berny optimization.
 Using GEDIIS/GDIIS optimizer.
 FormGI is forming the generalized inverse of G from B-inverse, IUseBI=4.
 Internal  Forces:  Max     0.003654730 RMS     0.001269897
 Search for a local minimum.
 Step number   2 out of a maximum of   28
 All quantities printed in internal units (Hartrees-Bohrs-Radians)
 Mixed Optimization -- RFO/linear search
 Update second derivatives using D2CorX and points    1    2
 DE= -2.32D-04 DEPred=-5.44D-04 R= 4.26D-01
 Trust test= 4.26D-01 RLast= 1.77D-01 DXMaxT set to 3.00D-01
 The second derivative matrix:
                          R1        R2        R3        R4        R5
           R1           0.05083
           R2           0.00536   0.30727
           R3           0.00306  -0.00498   0.32610
           R4           0.00491  -0.00893  -0.00486   0.31583
           R5          -0.00841   0.01526   0.00827   0.01409   0.43773
           R6           0.00542  -0.01064  -0.00759  -0.00946   0.01623
           A1          -0.00296   0.00529   0.00270   0.00492  -0.00841
           A2          -0.00356   0.00662   0.00393   0.00604  -0.01034
           A3           0.00389  -0.00687  -0.00328  -0.00643   0.01098
           A4          -0.00123   0.00202   0.00061   0.00196  -0.00334
           A5           0.00142  -0.00224  -0.00041  -0.00222   0.00378
           A6           0.00196  -0.00402  -0.00322  -0.00350   0.00602
           A7          -0.00678   0.01092   0.00273   0.01070  -0.01821
           A8           0.00167  -0.00505  -0.00736  -0.00376   0.00655
           A9          -0.00012   0.00047   0.00081   0.00032  -0.00057
           D1           0.00031  -0.00050  -0.00012  -0.00049   0.00084
           D2           0.00110  -0.00238  -0.00218  -0.00202   0.00348
           D3           0.00049  -0.00095  -0.00066  -0.00084   0.00145
                          R6        A1        A2        A3        A4
           R6           0.46033
           A1           0.00592   0.15709
           A2           0.00644  -0.00366   0.15566
           A3          -0.00808   0.00377   0.00484   0.15516
           A4           0.00299  -0.00110  -0.00157   0.00134   0.15973
           A5          -0.00376   0.00121   0.00185  -0.00142   0.00020
           A6          -0.00247   0.00225   0.00228  -0.00313   0.00126
           A7           0.01712  -0.00591  -0.00874   0.00712  -0.00124
           A8           0.00262   0.00293   0.00147  -0.00470   0.00277
           A9          -0.00047  -0.00028  -0.00008   0.00046  -0.00030
           D1          -0.00080   0.00027   0.00040  -0.00033   0.00005
           D2          -0.00098   0.00134   0.00123  -0.00192   0.00084
           D3          -0.00075   0.00053   0.00058  -0.00072   0.00026
                          A5        A6        A7        A8        A9
           A5           0.15994
           A6          -0.00164   0.15941
           A7           0.00073   0.00732   0.15470
           A8          -0.00411   0.00239   0.01724   0.02570
           A9           0.00046  -0.00034  -0.00191  -0.00199   0.00989
           D1          -0.00003  -0.00034   0.00023  -0.00081   0.00009
           D2          -0.00114  -0.00009   0.00501   0.00251  -0.00033
           D3          -0.00033  -0.00023   0.00149   0.00018  -0.00004
                          D1        D2        D3
           D1           0.01735
           D2          -0.00023   0.01753
           D3          -0.00007  -0.00010   0.01729
 ITU=  0  0
 Use linear search instead of GDIIS.
     Eigenvalues ---    0.00964   0.01670   0.02163   0.04947   0.10057
     Eigenvalues ---    0.10280   0.13236   0.16000   0.16000   0.16733
     Eigenvalues ---    0.29988   0.32112   0.32820   0.43756   0.46921
 RFO step:  Lambda=-5.79350328D-04 EMin= 9.64013524D-03
 Quartic linear search produced a step of -0.36168.
 Iteration  1 RMS(Cart)=  0.08241039 RMS(Int)=  0.00478527
 Iteration  2 RMS(Cart)=  0.00660414 RMS(Int)=  0.00001429
 Iteration  3 RMS(Cart)=  0.00001101 RMS(Int)=  0.00001163
 Iteration  4 RMS(Cart)=  0.00000000 RMS(Int)=  0.00001163
 Variable       Old X    -DE/DX   Delta X   Delta X   Delta X     New X
                                 (Linear)    (Quad)   (Total)
    R1        3.88191   0.00071  -0.01384   0.04218   0.02834   3.91025
    R2        2.10123  -0.00085   0.00468  -0.01352  -0.00885   2.09238
    R3        2.08565   0.00042   0.00337  -0.00770  -0.00433   2.08133
    R4        2.08988  -0.00096   0.00404  -0.01209  -0.00805   2.08183
    R5        2.65271   0.00161  -0.00486   0.01453   0.00967   2.66238
    R6        1.89263  -0.00242   0.00225  -0.00900  -0.00675   1.88588
    A1        1.86924   0.00056  -0.00516   0.01612   0.01098   1.88021
    A2        1.87050   0.00085  -0.00548   0.01704   0.01154   1.88205
    A3        1.96374  -0.00041   0.00710  -0.01896  -0.01186   1.95188
    A4        1.89257  -0.00011  -0.00271   0.00527   0.00255   1.89512
    A5        1.95395   0.00039   0.00346  -0.00709  -0.00363   1.95032
    A6        1.91058  -0.00122   0.00187  -0.01017  -0.00833   1.90226
    A7        1.88198  -0.00109  -0.01562   0.03480   0.01918   1.90116
    A8        3.11584  -0.00365  -0.05722  -0.11557  -0.17279   2.94306
    A9        3.11669   0.00042   0.00903   0.00831   0.01735   3.13403
    D1        1.53561  -0.00012   0.00669  -0.02650  -0.01983   1.51578
    D2       -0.57066  -0.00084   0.00572  -0.02875  -0.02301  -0.59367
    D3       -2.66984  -0.00013   0.00561  -0.02396  -0.01835  -2.68819
         Item               Value     Threshold  Converged?
 Maximum Force            0.003655     0.000015     NO 
 RMS     Force            0.001270     0.000010     NO 
 Maximum Displacement     0.237370     0.000060     NO 
 RMS     Displacement     0.086295     0.000040     NO 
 Predicted change in Energy=-3.534092D-04
 GradGradGradGradGradGradGradGradGradGradGradGradGradGradGradGradGradGrad

                          Input orientation:                          
 ---------------------------------------------------------------------
 Center     Atomic      Atomic             Coordinates (Angstroms)
 Number     Number       Type             X           Y           Z
 ---------------------------------------------------------------------
      1         17           0       -0.815916   -2.229105   -0.294318
      2          6           0        1.245759    0.696285    0.166452
      3          1           0        1.061545    0.917953    1.235523
      4          1           0        0.298081    0.844323   -0.374890
      5          1           0        1.981406    1.426085   -0.207537
      6          8           0        1.755081   -0.604166   -0.018843
      7          1           0        0.992105   -1.243193   -0.092607
 ---------------------------------------------------------------------
                    Distance matrix (angstroms):
                    1          2          3          4          5
     1  Cl   0.000000
     2  C    3.608424   0.000000
     3  H    3.971051   1.107241   0.000000
     4  H    3.270083   1.101390   1.783740   0.000000
     5  H    4.603581   1.101658   1.785151   1.788865   0.000000
     6  O    3.053906   1.408870   2.090758   2.085122   2.051523
     7  H    2.069215   1.973075   2.537577   2.217899   2.849030
                    6          7
     6  O    0.000000
     7  H    0.997962   0.000000
 Stoichiometry    CH4ClO(1-)
 Framework group  C1[X(CH4ClO)]
 Deg. of freedom    15
 Full point group                 C1      NOp   1
 Largest Abelian subgroup         C1      NOp   1
 Largest concise Abelian subgroup C1      NOp   1
                         Standard orientation:                         
 ---------------------------------------------------------------------
 Center     Atomic      Atomic             Coordinates (Angstroms)
 Number     Number       Type             X           Y           Z
 ---------------------------------------------------------------------
      1         17           0        1.664905   -0.078409   -0.000569
      2          6           0       -1.920493   -0.485404   -0.001278
      3          1           0       -2.090297   -0.861782    1.026093
      4          1           0       -1.340229   -1.246890   -0.545790
      5          1           0       -2.902967   -0.378243   -0.488014
      6          8           0       -1.270372    0.764498   -0.000653
      7          1           0       -0.283957    0.616313    0.030266
 ---------------------------------------------------------------------
 Rotational constants (GHZ):     30.3438601      2.7687901      2.5787605
 Standard basis: Aug-CC-pVDZ (5D, 7F)
 There are   115 symmetry adapted cartesian basis functions of A   symmetry.
 There are   109 symmetry adapted basis functions of A   symmetry.
   109 basis functions,   211 primitive gaussians,   115 cartesian basis functions
    18 alpha electrons       18 beta electrons
       nuclear repulsion energy        89.9954627745 Hartrees.
 NAtoms=    7 NActive=    7 NUniq=    7 SFac= 1.00D+00 NAtFMM=   60 NAOKFM=F Big=F
 Integral buffers will be    131072 words long.
 Raffenetti 2 integral format.
 Two-electron integral symmetry is turned on.
 One-electron integrals computed using PRISM.
 NBasis=   109 RedAO= T EigKep=  5.43D-04  NBF=   109
 NBsUse=   109 1.00D-06 EigRej= -1.00D+00 NBFU=   109
 Initial guess from the checkpoint file:  "/localscratch/rjackson.18103347.0/Gau-79629.chk"
 B after Tr=    -0.000000    0.000000    0.000000
         Rot=    0.999979    0.003276    0.000290   -0.005602 Ang=   0.74 deg.
 ExpMin= 2.97D-02 ExpMax= 1.28D+05 ExpMxC= 1.24D+03 IAcc=3 IRadAn=         5 AccDes= 0.00D+00
 Harris functional with IExCor=  402 and IRadAn=       5 diagonalized for initial guess.
 HarFok:  IExCor=  402 AccDes= 0.00D+00 IRadAn=         5 IDoV= 1 UseB2=F ITyADJ=14
 ICtDFT=  3500011 ScaDFX=  1.000000  1.000000  1.000000  1.000000
 FoFCou: FMM=F IPFlag=           0 FMFlag=      100000 FMFlg1=           0
         NFxFlg=           0 DoJE=T BraDBF=F KetDBF=T FulRan=T
         wScrn=  0.000000 ICntrl=     500 IOpCl=  0 I1Cent=   200000004 NGrid=           0
         NMat0=    1 NMatS0=      1 NMatT0=    0 NMatD0=    1 NMtDS0=    0 NMtDT0=    0
 Petite list used in FoFCou.
 Keep R1 ints in memory in canonical form, NReq=19024677.
 Requested convergence on RMS density matrix=1.00D-08 within 256 cycles.
 Requested convergence on MAX density matrix=1.00D-06.
 Requested convergence on             energy=1.00D-06.
 No special actions if energy rises.
 SCF Done:  E(RB3LYP) =  -576.064097764     A.U. after   10 cycles
            NFock= 10  Conv=0.38D-08     -V/T= 2.0031
 Calling FoFJK, ICntrl=      2127 FMM=F ISym2X=0 I1Cent= 0 IOpClX= 0 NMat=1 NMatS=1 NMatT=0.
 ***** Axes restored to original set *****
 -------------------------------------------------------------------
 Center     Atomic                   Forces (Hartrees/Bohr)
 Number     Number              X              Y              Z
 -------------------------------------------------------------------
      1       17          -0.000872677   -0.000913504    0.000005473
      2        6          -0.001603751   -0.003659715    0.000435701
      3        1          -0.000622163    0.000802293    0.001014822
      4        1          -0.001093069    0.000187664   -0.000550707
      5        1           0.001341865    0.000361837   -0.000417497
      6        8           0.003632267   -0.001284834   -0.001027140
      7        1          -0.000782472    0.004506258    0.000539348
 -------------------------------------------------------------------
 Cartesian Forces:  Max     0.004506258 RMS     0.001698177

 GradGradGradGradGradGradGradGradGradGradGradGradGradGradGradGradGradGrad
 Berny optimization.
 Using GEDIIS/GDIIS optimizer.
 FormGI is forming the generalized inverse of G from B-inverse, IUseBI=4.
 Internal  Forces:  Max     0.005822265 RMS     0.001648017
 Search for a local minimum.
 Step number   3 out of a maximum of   28
 All quantities printed in internal units (Hartrees-Bohrs-Radians)
 Mixed Optimization -- RFO/linear search
 Update second derivatives using D2CorX and points    1    2    3
 DE= -1.81D-04 DEPred=-3.53D-04 R= 5.13D-01
 TightC=F SS=  1.41D+00  RLast= 1.83D-01 DXNew= 5.0454D-01 5.4804D-01
 Trust test= 5.13D-01 RLast= 1.83D-01 DXMaxT set to 5.05D-01
 The second derivative matrix:
                          R1        R2        R3        R4        R5
           R1           0.04787
           R2           0.01126   0.31099
           R3           0.00638  -0.00062   0.33012
           R4           0.01037  -0.00490  -0.00040   0.32013
           R5          -0.01767   0.01216   0.00336   0.01039   0.43880
           R6           0.01137  -0.01716  -0.01041  -0.01529   0.02741
           A1          -0.00666   0.00507   0.00146   0.00442  -0.00940
           A2          -0.00724   0.00770   0.00362   0.00680  -0.01314
           A3           0.00798  -0.00233   0.00112  -0.00174   0.00609
           A4          -0.00212   0.00304   0.00109   0.00287  -0.00507
           A5           0.00279  -0.00259  -0.00029  -0.00245   0.00474
           A6           0.00435  -0.01034  -0.00697  -0.00940   0.01566
           A7          -0.01435  -0.01274  -0.01616  -0.01265   0.01208
           A8           0.00417   0.00059  -0.00247   0.00182  -0.00039
           A9          -0.00036  -0.00046   0.00006  -0.00058   0.00064
           D1           0.00108  -0.00128  -0.00044  -0.00118   0.00219
           D2           0.00162  -0.00331  -0.00267  -0.00288   0.00496
           D3           0.00109  -0.00219  -0.00136  -0.00199   0.00339
                          R6        A1        A2        A3        A4
           R6           0.45013
           A1           0.01075   0.15619
           A2           0.01169  -0.00519   0.15362
           A3          -0.01189   0.00265   0.00479   0.15991
           A4           0.00449  -0.00184  -0.00237   0.00196   0.15949
           A5          -0.00564   0.00175   0.00258  -0.00138   0.00051
           A6          -0.00786   0.00600   0.00588  -0.00769   0.00203
           A7           0.01884   0.00366  -0.00248  -0.01415  -0.00166
           A8           0.00102   0.00085   0.00033   0.00059   0.00291
           A9          -0.00044   0.00011   0.00018  -0.00036  -0.00029
           D1          -0.00208   0.00086   0.00105  -0.00076   0.00025
           D2          -0.00202   0.00194   0.00184  -0.00254   0.00098
           D3          -0.00198   0.00130   0.00134  -0.00158   0.00044
                          A5        A6        A7        A8        A9
           A5           0.15965
           A6          -0.00295   0.15760
           A7          -0.00164   0.01724   0.23205
           A8          -0.00351  -0.00083  -0.00326   0.03016
           A9           0.00034   0.00001   0.00104  -0.00267   0.00999
           D1          -0.00027  -0.00104   0.00029  -0.00094   0.00008
           D2          -0.00135  -0.00054   0.00602   0.00206  -0.00029
           D3          -0.00061  -0.00072   0.00312  -0.00038   0.00002
                          D1        D2        D3
           D1           0.01719
           D2          -0.00037   0.01743
           D3          -0.00023  -0.00021   0.01717
 ITU=  1  0  0
 Use linear search instead of GDIIS.
     Eigenvalues ---    0.00963   0.01548   0.02898   0.04337   0.10108
     Eigenvalues ---    0.10361   0.13727   0.16000   0.16089   0.23039
     Eigenvalues ---    0.31087   0.32251   0.33240   0.42693   0.47588
 RFO step:  Lambda=-1.22747608D-04 EMin= 9.62701186D-03
 Quartic linear search produced a step of -0.33686.
 Iteration  1 RMS(Cart)=  0.02118231 RMS(Int)=  0.00032830
 Iteration  2 RMS(Cart)=  0.00038748 RMS(Int)=  0.00000663
 Iteration  3 RMS(Cart)=  0.00000004 RMS(Int)=  0.00000663
 Variable       Old X    -DE/DX   Delta X   Delta X   Delta X     New X
                                 (Linear)    (Quad)   (Total)
    R1        3.91025   0.00120  -0.00955   0.02282   0.01327   3.92352
    R2        2.09238   0.00124   0.00298  -0.00081   0.00217   2.09455
    R3        2.08133   0.00123   0.00146   0.00100   0.00245   2.08378
    R4        2.08183   0.00128   0.00271  -0.00061   0.00210   2.08394
    R5        2.66238  -0.00135  -0.00326   0.00171  -0.00155   2.66083
    R6        1.88588  -0.00108   0.00228  -0.00398  -0.00171   1.88417
    A1        1.88021  -0.00041  -0.00370   0.00299  -0.00071   1.87950
    A2        1.88205  -0.00000  -0.00389   0.00409   0.00022   1.88227
    A3        1.95188   0.00121   0.00400   0.00061   0.00462   1.95650
    A4        1.89512   0.00034  -0.00086   0.00117   0.00032   1.89545
    A5        1.95032   0.00005   0.00122  -0.00052   0.00071   1.95103
    A6        1.90226  -0.00119   0.00280  -0.00802  -0.00521   1.89705
    A7        1.90116  -0.00582  -0.00646  -0.01535  -0.02181   1.87935
    A8        2.94306   0.00156   0.05820  -0.01163   0.04657   2.98963
    A9        3.13403  -0.00025  -0.00584  -0.00398  -0.00982   3.12421
    D1        1.51578  -0.00009   0.00668  -0.01552  -0.00883   1.50695
    D2       -0.59367  -0.00046   0.00775  -0.01943  -0.01169  -0.60535
    D3       -2.68819  -0.00013   0.00618  -0.01528  -0.00911  -2.69729
         Item               Value     Threshold  Converged?
 Maximum Force            0.005822     0.000015     NO 
 RMS     Force            0.001648     0.000010     NO 
 Maximum Displacement     0.043745     0.000060     NO 
 RMS     Displacement     0.021244     0.000040     NO 
 Predicted change in Energy=-1.251078D-04
 GradGradGradGradGradGradGradGradGradGradGradGradGradGradGradGradGradGrad

                          Input orientation:                          
 ---------------------------------------------------------------------
 Center     Atomic      Atomic             Coordinates (Angstroms)
 Number     Number       Type             X           Y           Z
 ---------------------------------------------------------------------
      1         17           0       -0.816117   -2.252254   -0.278355
      2          6           0        1.247997    0.696111    0.166585
      3          1           0        1.052328    0.912094    1.235975
      4          1           0        0.306251    0.854032   -0.384868
      5          1           0        1.993353    1.424293   -0.194389
      6          8           0        1.755545   -0.602904   -0.027225
      7          1           0        0.978702   -1.223192   -0.103943
 ---------------------------------------------------------------------
                    Distance matrix (angstroms):
                    1          2          3          4          5
     1  Cl   0.000000
     2  C    3.626485   0.000000
     3  H    3.974592   1.108390   0.000000
     4  H    3.304553   1.102689   1.785254   0.000000
     5  H    4.627869   1.102772   1.787124   1.791031   0.000000
     6  O    3.065431   1.408051   2.094136   2.085911   2.047932
     7  H    2.076239   1.956892   2.521952   2.201356   2.836701
                    6          7
     6  O    0.000000
     7  H    0.997059   0.000000
 Stoichiometry    CH4ClO(1-)
 Framework group  C1[X(CH4ClO)]
 Deg. of freedom    15
 Full point group                 C1      NOp   1
 Largest Abelian subgroup         C1      NOp   1
 Largest concise Abelian subgroup C1      NOp   1
                         Standard orientation:                         
 ---------------------------------------------------------------------
 Center     Atomic      Atomic             Coordinates (Angstroms)
 Number     Number       Type             X           Y           Z
 ---------------------------------------------------------------------
      1         17           0        1.673267   -0.077671   -0.000340
      2          6           0       -1.930512   -0.482851   -0.001279
      3          1           0       -2.083284   -0.875603    1.023873
      4          1           0       -1.366841   -1.241002   -0.569966
      5          1           0       -2.922383   -0.359239   -0.467132
      6          8           0       -1.274609    0.763100    0.001080
      7          1           0       -0.293093    0.588556    0.018040
 ---------------------------------------------------------------------
 Rotational constants (GHZ):     30.5346610      2.7423321      2.5571897
 Standard basis: Aug-CC-pVDZ (5D, 7F)
 There are   115 symmetry adapted cartesian basis functions of A   symmetry.
 There are   109 symmetry adapted basis functions of A   symmetry.
   109 basis functions,   211 primitive gaussians,   115 cartesian basis functions
    18 alpha electrons       18 beta electrons
       nuclear repulsion energy        89.7975835778 Hartrees.
 NAtoms=    7 NActive=    7 NUniq=    7 SFac= 1.00D+00 NAtFMM=   60 NAOKFM=F Big=F
 Integral buffers will be    131072 words long.
 Raffenetti 2 integral format.
 Two-electron integral symmetry is turned on.
 One-electron integrals computed using PRISM.
 NBasis=   109 RedAO= T EigKep=  5.36D-04  NBF=   109
 NBsUse=   109 1.00D-06 EigRej= -1.00D+00 NBFU=   109
 Initial guess from the checkpoint file:  "/localscratch/rjackson.18103347.0/Gau-79629.chk"
 B after Tr=    -0.000000   -0.000000   -0.000000
         Rot=    0.999997   -0.002576   -0.000314    0.000196 Ang=  -0.30 deg.
 ExpMin= 2.97D-02 ExpMax= 1.28D+05 ExpMxC= 1.24D+03 IAcc=3 IRadAn=         5 AccDes= 0.00D+00
 Harris functional with IExCor=  402 and IRadAn=       5 diagonalized for initial guess.
 HarFok:  IExCor=  402 AccDes= 0.00D+00 IRadAn=         5 IDoV= 1 UseB2=F ITyADJ=14
 ICtDFT=  3500011 ScaDFX=  1.000000  1.000000  1.000000  1.000000
 FoFCou: FMM=F IPFlag=           0 FMFlag=      100000 FMFlg1=           0
         NFxFlg=           0 DoJE=T BraDBF=F KetDBF=T FulRan=T
         wScrn=  0.000000 ICntrl=     500 IOpCl=  0 I1Cent=   200000004 NGrid=           0
         NMat0=    1 NMatS0=      1 NMatT0=    0 NMatD0=    1 NMtDS0=    0 NMtDT0=    0
 Petite list used in FoFCou.
 Keep R1 ints in memory in canonical form, NReq=19024677.
 Requested convergence on RMS density matrix=1.00D-08 within 256 cycles.
 Requested convergence on MAX density matrix=1.00D-06.
 Requested convergence on             energy=1.00D-06.
 No special actions if energy rises.
 SCF Done:  E(RB3LYP) =  -576.064250736     A.U. after    9 cycles
            NFock=  9  Conv=0.29D-08     -V/T= 2.0031
 Calling FoFJK, ICntrl=      2127 FMM=F ISym2X=0 I1Cent= 0 IOpClX= 0 NMat=1 NMatS=1 NMatT=0.
 ***** Axes restored to original set *****
 -------------------------------------------------------------------
 Center     Atomic                   Forces (Hartrees/Bohr)
 Number     Number              X              Y              Z
 -------------------------------------------------------------------
      1       17          -0.000620127   -0.000333685   -0.000069378
      2        6          -0.000355168   -0.000963978    0.000087870
      3        1          -0.000417930    0.000353846    0.000402023
      4        1          -0.000396569    0.000156125   -0.000200890
      5        1           0.000489077    0.000520194    0.000005099
      6        8           0.000829594   -0.000950731   -0.000946275
      7        1           0.000471122    0.001218229    0.000721551
 -------------------------------------------------------------------
 Cartesian Forces:  Max     0.001218229 RMS     0.000596473

 GradGradGradGradGradGradGradGradGradGradGradGradGradGradGradGradGradGrad
 Berny optimization.
 Using GEDIIS/GDIIS optimizer.
 FormGI is forming the generalized inverse of G from B-inverse, IUseBI=4.
 Internal  Forces:  Max     0.001675294 RMS     0.000540521
 Search for a local minimum.
 Step number   4 out of a maximum of   28
 All quantities printed in internal units (Hartrees-Bohrs-Radians)
 Mixed Optimization -- En-DIIS/RFO-DIIS
 Update second derivatives using D2CorX and points    1    2    3    4
 DE= -1.53D-04 DEPred=-1.25D-04 R= 1.22D+00
 TightC=F SS=  1.41D+00  RLast= 5.73D-02 DXNew= 8.4853D-01 1.7194D-01
 Trust test= 1.22D+00 RLast= 5.73D-02 DXMaxT set to 5.05D-01
 The second derivative matrix:
                          R1        R2        R3        R4        R5
           R1           0.04163
           R2           0.00627   0.31090
           R3           0.00146  -0.00240   0.32757
           R4           0.00455  -0.00526  -0.00275   0.31954
           R5          -0.01770   0.01086   0.00167   0.00966   0.44377
           R6           0.01654  -0.01039  -0.00508  -0.00736   0.02812
           A1          -0.00512   0.00368   0.00138   0.00285  -0.00934
           A2          -0.00621   0.00546   0.00303   0.00415  -0.01374
           A3           0.00282  -0.00363  -0.00135  -0.00349   0.00484
           A4          -0.00142   0.00202   0.00109   0.00156  -0.00593
           A5           0.00255  -0.00208  -0.00007  -0.00194   0.00423
           A6           0.00678  -0.00503  -0.00395  -0.00284   0.01863
           A7           0.00539  -0.00002  -0.00354   0.00339   0.02019
           A8           0.00313  -0.00165  -0.00312  -0.00126  -0.00327
           A9          -0.00022   0.00004   0.00021   0.00009   0.00122
           D1           0.00406  -0.00043   0.00137  -0.00034   0.00106
           D2           0.00249  -0.00219  -0.00191  -0.00148   0.00567
           D3           0.00384  -0.00123   0.00041  -0.00100   0.00248
                          R6        A1        A2        A3        A4
           R6           0.44790
           A1           0.00745   0.15771
           A2           0.00829  -0.00311   0.15640
           A3          -0.00576   0.00208   0.00352   0.15770
           A4           0.00231  -0.00070  -0.00074   0.00150   0.16046
           A5          -0.00500   0.00138   0.00215  -0.00106   0.00035
           A6          -0.00641   0.00245   0.00147  -0.00348  -0.00087
           A7           0.00234  -0.00035  -0.00567  -0.00043  -0.00485
           A8          -0.00068   0.00267   0.00291  -0.00093   0.00450
           A9           0.00000  -0.00031  -0.00041  -0.00003  -0.00067
           D1          -0.00609   0.00144   0.00233   0.00068   0.00105
           D2          -0.00221   0.00130   0.00109  -0.00157   0.00046
           D3          -0.00556   0.00169   0.00234  -0.00011   0.00104
                          A5        A6        A7        A8        A9
           A5           0.15977
           A6          -0.00245   0.16301
           A7          -0.00175   0.01281   0.18206
           A8          -0.00348  -0.00498  -0.00489   0.03193
           A9           0.00036   0.00096   0.00149  -0.00317   0.01012
           D1          -0.00035  -0.00494  -0.01034   0.00142  -0.00040
           D2          -0.00128   0.00020   0.00416   0.00137  -0.00013
           D3          -0.00064  -0.00405  -0.00667   0.00150  -0.00037
                          D1        D2        D3
           D1           0.01696
           D2          -0.00124   0.01750
           D3          -0.00057  -0.00097   0.01674
 ITU=  1  1  0  0
 Use linear search instead of GDIIS.
     Eigenvalues ---    0.00964   0.01207   0.02976   0.04216   0.10192
     Eigenvalues ---    0.10411   0.14593   0.15962   0.16064   0.18920
     Eigenvalues ---    0.30674   0.32164   0.32862   0.42580   0.47537
 RFO step:  Lambda=-5.84478395D-05 EMin= 9.63846498D-03
 Quartic linear search produced a step of  0.29403.
 Iteration  1 RMS(Cart)=  0.02014587 RMS(Int)=  0.00018005
 Iteration  2 RMS(Cart)=  0.00023726 RMS(Int)=  0.00000098
 Iteration  3 RMS(Cart)=  0.00000003 RMS(Int)=  0.00000098
 Variable       Old X    -DE/DX   Delta X   Delta X   Delta X     New X
                                 (Linear)    (Quad)   (Total)
    R1        3.92352   0.00071   0.00390   0.02564   0.02954   3.95306
    R2        2.09455   0.00053   0.00064  -0.00016   0.00047   2.09503
    R3        2.08378   0.00046   0.00072   0.00031   0.00103   2.08481
    R4        2.08394   0.00067   0.00062   0.00073   0.00135   2.08529
    R5        2.66083   0.00035  -0.00046   0.00387   0.00342   2.66425
    R6        1.88417  -0.00048  -0.00050  -0.00278  -0.00329   1.88088
    A1        1.87950  -0.00033  -0.00021  -0.00056  -0.00077   1.87873
    A2        1.88227  -0.00021   0.00007   0.00118   0.00125   1.88352
    A3        1.95650   0.00046   0.00136   0.00022   0.00158   1.95808
    A4        1.89545  -0.00002   0.00009   0.00100   0.00109   1.89653
    A5        1.95103   0.00000   0.00021  -0.00168  -0.00147   1.94956
    A6        1.89705   0.00007  -0.00153  -0.00003  -0.00156   1.89549
    A7        1.87935  -0.00168  -0.00641  -0.00617  -0.01258   1.86677
    A8        2.98963  -0.00008   0.01369  -0.01661  -0.00292   2.98671
    A9        3.12421   0.00003  -0.00289   0.00410   0.00121   3.12543
    D1        1.50695  -0.00035  -0.00260  -0.02955  -0.03215   1.47480
    D2       -0.60535  -0.00025  -0.00344  -0.02779  -0.03122  -0.63658
    D3       -2.69729  -0.00028  -0.00268  -0.02796  -0.03065  -2.72794
         Item               Value     Threshold  Converged?
 Maximum Force            0.001675     0.000015     NO 
 RMS     Force            0.000541     0.000010     NO 
 Maximum Displacement     0.035815     0.000060     NO 
 RMS     Displacement     0.020199     0.000040     NO 
 Predicted change in Energy=-3.754317D-05
 GradGradGradGradGradGradGradGradGradGradGradGradGradGradGradGradGradGrad

                          Input orientation:                          
 ---------------------------------------------------------------------
 Center     Atomic      Atomic             Coordinates (Angstroms)
 Number     Number       Type             X           Y           Z
 ---------------------------------------------------------------------
      1         17           0       -0.826856   -2.246073   -0.259403
      2          6           0        1.247815    0.694138    0.163969
      3          1           0        1.035782    0.895220    1.233405
      4          1           0        0.311806    0.852680   -0.398058
      5          1           0        1.994456    1.430982   -0.178476
      6          8           0        1.766491   -0.600605   -0.041735
      7          1           0        0.988568   -1.218162   -0.105922
 ---------------------------------------------------------------------
                    Distance matrix (angstroms):
                    1          2          3          4          5
     1  Cl   0.000000
     2  C    3.623306   0.000000
     3  H    3.945328   1.108641   0.000000
     4  H    3.304247   1.103233   1.785392   0.000000
     5  H    4.635416   1.103486   1.788717   1.792752   0.000000
     6  O    3.079025   1.409858   2.097000   2.086891   2.048905
     7  H    2.091870   1.948575   2.502481   2.198121   2.834615
                    6          7
     6  O    0.000000
     7  H    0.995320   0.000000
 Stoichiometry    CH4ClO(1-)
 Framework group  C1[X(CH4ClO)]
 Deg. of freedom    15
 Full point group                 C1      NOp   1
 Largest Abelian subgroup         C1      NOp   1
 Largest concise Abelian subgroup C1      NOp   1
                         Standard orientation:                         
 ---------------------------------------------------------------------
 Center     Atomic      Atomic             Coordinates (Angstroms)
 Number     Number       Type             X           Y           Z
 ---------------------------------------------------------------------
      1         17           0        1.675193   -0.076457   -0.000403
      2          6           0       -1.924533   -0.489154   -0.001238
      3          1           0       -2.045586   -0.899108    1.021684
      4          1           0       -1.363290   -1.230898   -0.594487
      5          1           0       -2.929696   -0.372479   -0.441367
      6          8           0       -1.285843    0.767734    0.000981
      7          1           0       -0.305768    0.595311    0.020609
 ---------------------------------------------------------------------
 Rotational constants (GHZ):     30.1462167      2.7378729      2.5505835
 Standard basis: Aug-CC-pVDZ (5D, 7F)
 There are   115 symmetry adapted cartesian basis functions of A   symmetry.
 There are   109 symmetry adapted basis functions of A   symmetry.
   109 basis functions,   211 primitive gaussians,   115 cartesian basis functions
    18 alpha electrons       18 beta electrons
       nuclear repulsion energy        89.6726427283 Hartrees.
 NAtoms=    7 NActive=    7 NUniq=    7 SFac= 1.00D+00 NAtFMM=   60 NAOKFM=F Big=F
 Integral buffers will be    131072 words long.
 Raffenetti 2 integral format.
 Two-electron integral symmetry is turned on.
 One-electron integrals computed using PRISM.
 NBasis=   109 RedAO= T EigKep=  5.37D-04  NBF=   109
 NBsUse=   109 1.00D-06 EigRej= -1.00D+00 NBFU=   109
 Initial guess from the checkpoint file:  "/localscratch/rjackson.18103347.0/Gau-79629.chk"
 B after Tr=    -0.000000   -0.000000   -0.000000
         Rot=    0.999997   -0.002237   -0.000396   -0.001230 Ang=  -0.30 deg.
 ExpMin= 2.97D-02 ExpMax= 1.28D+05 ExpMxC= 1.24D+03 IAcc=3 IRadAn=         5 AccDes= 0.00D+00
 Harris functional with IExCor=  402 and IRadAn=       5 diagonalized for initial guess.
 HarFok:  IExCor=  402 AccDes= 0.00D+00 IRadAn=         5 IDoV= 1 UseB2=F ITyADJ=14
 ICtDFT=  3500011 ScaDFX=  1.000000  1.000000  1.000000  1.000000
 FoFCou: FMM=F IPFlag=           0 FMFlag=      100000 FMFlg1=           0
         NFxFlg=           0 DoJE=T BraDBF=F KetDBF=T FulRan=T
         wScrn=  0.000000 ICntrl=     500 IOpCl=  0 I1Cent=   200000004 NGrid=           0
         NMat0=    1 NMatS0=      1 NMatT0=    0 NMatD0=    1 NMtDS0=    0 NMtDT0=    0
 Petite list used in FoFCou.
 Keep R1 ints in memory in canonical form, NReq=19024677.
 Requested convergence on RMS density matrix=1.00D-08 within 256 cycles.
 Requested convergence on MAX density matrix=1.00D-06.
 Requested convergence on             energy=1.00D-06.
 No special actions if energy rises.
 SCF Done:  E(RB3LYP) =  -576.064303233     A.U. after    9 cycles
            NFock=  9  Conv=0.26D-08     -V/T= 2.0031
 Calling FoFJK, ICntrl=      2127 FMM=F ISym2X=0 I1Cent= 0 IOpClX= 0 NMat=1 NMatS=1 NMatT=0.
 ***** Axes restored to original set *****
 -------------------------------------------------------------------
 Center     Atomic                   Forces (Hartrees/Bohr)
 Number     Number              X              Y              Z
 -------------------------------------------------------------------
      1       17          -0.000257465   -0.000094674    0.000003592
      2        6           0.000308932   -0.000517972   -0.000242815
      3        1          -0.000221767    0.000144143    0.000120450
      4        1          -0.000028987    0.000173712   -0.000026194
      5        1           0.000070951    0.000122628    0.000223243
      6        8          -0.000173177    0.000459457   -0.000463211
      7        1           0.000301512   -0.000287293    0.000384934
 -------------------------------------------------------------------
 Cartesian Forces:  Max     0.000517972 RMS     0.000263792

 GradGradGradGradGradGradGradGradGradGradGradGradGradGradGradGradGradGrad
 Berny optimization.
 Using GEDIIS/GDIIS optimizer.
 FormGI is forming the generalized inverse of G from B-inverse, IUseBI=4.
 Internal  Forces:  Max     0.000349387 RMS     0.000197092
 Search for a local minimum.
 Step number   5 out of a maximum of   28
 All quantities printed in internal units (Hartrees-Bohrs-Radians)
 Mixed Optimization -- En-DIIS/RFO-DIIS
 Swapping is turned off.
 Update second derivatives using D2CorX and points    1    2    3    4    5
 DE= -5.25D-05 DEPred=-3.75D-05 R= 1.40D+00
 TightC=F SS=  1.41D+00  RLast= 6.34D-02 DXNew= 8.4853D-01 1.9031D-01
 Trust test= 1.40D+00 RLast= 6.34D-02 DXMaxT set to 5.05D-01
 The second derivative matrix:
                          R1        R2        R3        R4        R5
           R1           0.03930
           R2           0.00426   0.31189
           R3           0.00108  -0.00294   0.32774
           R4           0.00396  -0.00371  -0.00205   0.32281
           R5          -0.01626   0.01091   0.00401   0.01157   0.44451
           R6           0.01360  -0.00687  -0.00727  -0.00722   0.02070
           A1          -0.00140   0.00379   0.00335   0.00358  -0.00728
           A2          -0.00424   0.00348   0.00365   0.00284  -0.01082
           A3           0.00174  -0.00293  -0.00134  -0.00200   0.00547
           A4          -0.00158   0.00025   0.00047   0.00006  -0.00404
           A5           0.00075  -0.00238  -0.00127  -0.00330   0.00205
           A6           0.00443  -0.00208  -0.00463  -0.00105   0.01380
           A7           0.00004   0.00395  -0.00770  -0.00115   0.00074
           A8           0.00488  -0.00094  -0.00257   0.00069   0.00105
           A9           0.00106   0.00043   0.00114   0.00109   0.00220
           D1           0.00556  -0.00153   0.00124  -0.00145   0.00332
           D2           0.00655   0.00102   0.00083   0.00244   0.00653
           D3           0.00729  -0.00149   0.00167  -0.00038   0.00630
                          R6        A1        A2        A3        A4
           R6           0.46343
           A1           0.00102   0.15779
           A2           0.00181  -0.00105   0.15940
           A3          -0.00459   0.00258   0.00251   0.15835
           A4           0.00031   0.00094   0.00058   0.00034   0.16058
           A5          -0.00114   0.00078   0.00123  -0.00164  -0.00010
           A6           0.00252  -0.00096  -0.00256  -0.00203  -0.00216
           A7           0.02837  -0.01238  -0.01379  -0.00059  -0.00458
           A8          -0.00243   0.00270   0.00224  -0.00015   0.00357
           A9          -0.00248  -0.00009   0.00017   0.00050  -0.00027
           D1          -0.00851   0.00196   0.00335   0.00001   0.00139
           D2          -0.00489  -0.00118   0.00025   0.00104   0.00106
           D3          -0.01122   0.00223   0.00388   0.00015   0.00181
                          A5        A6        A7        A8        A9
           A5           0.16076
           A6          -0.00102   0.16831
           A7           0.00661   0.02334   0.22753
           A8          -0.00428  -0.00351  -0.00728   0.03082
           A9          -0.00020  -0.00012  -0.00452  -0.00242   0.01038
           D1          -0.00036  -0.00602  -0.01051  -0.00029  -0.00033
           D2          -0.00147   0.00035  -0.00668   0.00246  -0.00024
           D3          -0.00140  -0.00621  -0.01505   0.00067   0.00008
                          D1        D2        D3
           D1           0.01668
           D2          -0.00231   0.01525
           D3          -0.00099  -0.00224   0.01670
 ITU=  1  1  1  0  0
     Eigenvalues ---    0.00508   0.01020   0.02867   0.04408   0.10278
     Eigenvalues ---    0.10470   0.14879   0.16047   0.16321   0.23780
     Eigenvalues ---    0.30860   0.32330   0.32927   0.43784   0.48019
 En-DIIS/RFO-DIIS IScMMF=        0 using points:     5    4
 RFO step:  Lambda=-4.79177708D-06.
 DidBck=F Rises=F RFO-DIIS coefs:    1.66356   -0.66356
 Iteration  1 RMS(Cart)=  0.04153202 RMS(Int)=  0.00079396
 Iteration  2 RMS(Cart)=  0.00097553 RMS(Int)=  0.00000071
 Iteration  3 RMS(Cart)=  0.00000040 RMS(Int)=  0.00000065
 Variable       Old X    -DE/DX   Delta X   Delta X   Delta X     New X
                                 (Linear)    (Quad)   (Total)
    R1        3.95306   0.00027   0.01960   0.01884   0.03845   3.99151
    R2        2.09503   0.00018   0.00031  -0.00076  -0.00044   2.09459
    R3        2.08481   0.00006   0.00068  -0.00036   0.00032   2.08513
    R4        2.08529   0.00006   0.00089  -0.00123  -0.00033   2.08495
    R5        2.66425  -0.00011   0.00227   0.00133   0.00360   2.66784
    R6        1.88088   0.00018  -0.00218  -0.00135  -0.00353   1.87736
    A1        1.87873  -0.00021  -0.00051   0.00055   0.00004   1.87877
    A2        1.88352  -0.00019   0.00083   0.00089   0.00172   1.88523
    A3        1.95808   0.00016   0.00105  -0.00051   0.00054   1.95862
    A4        1.89653  -0.00005   0.00072   0.00111   0.00183   1.89836
    A5        1.94956   0.00018  -0.00098   0.00091  -0.00007   1.94949
    A6        1.89549   0.00009  -0.00104  -0.00285  -0.00388   1.89161
    A7        1.86677   0.00032  -0.00835   0.00243  -0.00592   1.86085
    A8        2.98671  -0.00016  -0.00194  -0.00893  -0.01086   2.97585
    A9        3.12543  -0.00012   0.00080  -0.02512  -0.02432   3.10111
    D1        1.47480  -0.00027  -0.02133  -0.03139  -0.05272   1.42208
    D2       -0.63658  -0.00024  -0.02072  -0.03239  -0.05310  -0.68968
    D3       -2.72794  -0.00035  -0.02033  -0.03247  -0.05280  -2.78074
         Item               Value     Threshold  Converged?
 Maximum Force            0.000349     0.000015     NO 
 RMS     Force            0.000197     0.000010     NO 
 Maximum Displacement     0.087922     0.000060     NO 
 RMS     Displacement     0.041935     0.000040     NO 
 Predicted change in Energy=-2.816738D-05
 GradGradGradGradGradGradGradGradGradGradGradGradGradGradGradGradGradGrad

                          Input orientation:                          
 ---------------------------------------------------------------------
 Center     Atomic      Atomic             Coordinates (Angstroms)
 Number     Number       Type             X           Y           Z
 ---------------------------------------------------------------------
      1         17           0       -0.840149   -2.240346   -0.212877
      2          6           0        1.246125    0.693086    0.158911
      3          1           0        1.000893    0.862986    1.226414
      4          1           0        0.326691    0.863766   -0.426756
      5          1           0        2.001491    1.439394   -0.140652
      6          8           0        1.778144   -0.594711   -0.068257
      7          1           0        1.004866   -1.215996   -0.123004
 ---------------------------------------------------------------------
                    Distance matrix (angstroms):
                    1          2          3          4          5
     1  Cl   0.000000
     2  C    3.618810   0.000000
     3  H    3.884799   1.108408   0.000000
     4  H    3.323066   1.103402   1.785364   0.000000
     5  H    4.649797   1.103309   1.789500   1.793923   0.000000
     6  O    3.095882   1.411762   2.098851   2.088635   2.047610
     7  H    2.112215   1.944807   2.478530   2.208528   2.836312
                    6          7
     6  O    0.000000
     7  H    0.993454   0.000000
 Stoichiometry    CH4ClO(1-)
 Framework group  C1[X(CH4ClO)]
 Deg. of freedom    15
 Full point group                 C1      NOp   1
 Largest Abelian subgroup         C1      NOp   1
 Largest concise Abelian subgroup C1      NOp   1
                         Standard orientation:                         
 ---------------------------------------------------------------------
 Center     Atomic      Atomic             Coordinates (Angstroms)
 Number     Number       Type             X           Y           Z
 ---------------------------------------------------------------------
      1         17           0        1.677444   -0.074995   -0.000207
      2          6           0       -1.916622   -0.497466   -0.001299
      3          1           0       -1.971758   -0.939149    1.013809
      4          1           0       -1.377566   -1.210978   -0.647686
      5          1           0       -2.946531   -0.383359   -0.380188
      6          8           0       -1.300154    0.772586    0.001836
      7          1           0       -0.319722    0.612509    0.010691
 ---------------------------------------------------------------------
 Rotational constants (GHZ):     29.6825858      2.7327277      2.5427505
 Standard basis: Aug-CC-pVDZ (5D, 7F)
 There are   115 symmetry adapted cartesian basis functions of A   symmetry.
 There are   109 symmetry adapted basis functions of A   symmetry.
   109 basis functions,   211 primitive gaussians,   115 cartesian basis functions
    18 alpha electrons       18 beta electrons
       nuclear repulsion energy        89.5223423899 Hartrees.
 NAtoms=    7 NActive=    7 NUniq=    7 SFac= 1.00D+00 NAtFMM=   60 NAOKFM=F Big=F
 Integral buffers will be    131072 words long.
 Raffenetti 2 integral format.
 Two-electron integral symmetry is turned on.
 One-electron integrals computed using PRISM.
 NBasis=   109 RedAO= T EigKep=  5.39D-04  NBF=   109
 NBsUse=   109 1.00D-06 EigRej= -1.00D+00 NBFU=   109
 Initial guess from the checkpoint file:  "/localscratch/rjackson.18103347.0/Gau-79629.chk"
 B after Tr=    -0.000000   -0.000000   -0.000000
         Rot=    0.999988   -0.004497   -0.000909   -0.001560 Ang=  -0.56 deg.
 ExpMin= 2.97D-02 ExpMax= 1.28D+05 ExpMxC= 1.24D+03 IAcc=3 IRadAn=         5 AccDes= 0.00D+00
 Harris functional with IExCor=  402 and IRadAn=       5 diagonalized for initial guess.
 HarFok:  IExCor=  402 AccDes= 0.00D+00 IRadAn=         5 IDoV= 1 UseB2=F ITyADJ=14
 ICtDFT=  3500011 ScaDFX=  1.000000  1.000000  1.000000  1.000000
 FoFCou: FMM=F IPFlag=           0 FMFlag=      100000 FMFlg1=           0
         NFxFlg=           0 DoJE=T BraDBF=F KetDBF=T FulRan=T
         wScrn=  0.000000 ICntrl=     500 IOpCl=  0 I1Cent=   200000004 NGrid=           0
         NMat0=    1 NMatS0=      1 NMatT0=    0 NMatD0=    1 NMtDS0=    0 NMtDT0=    0
 Petite list used in FoFCou.
 Keep R1 ints in memory in canonical form, NReq=19024677.
 Requested convergence on RMS density matrix=1.00D-08 within 256 cycles.
 Requested convergence on MAX density matrix=1.00D-06.
 Requested convergence on             energy=1.00D-06.
 No special actions if energy rises.
 SCF Done:  E(RB3LYP) =  -576.064337238     A.U. after    9 cycles
            NFock=  9  Conv=0.50D-08     -V/T= 2.0032
 Calling FoFJK, ICntrl=      2127 FMM=F ISym2X=0 I1Cent= 0 IOpClX= 0 NMat=1 NMatS=1 NMatT=0.
 ***** Axes restored to original set *****
 -------------------------------------------------------------------
 Center     Atomic                   Forces (Hartrees/Bohr)
 Number     Number              X              Y              Z
 -------------------------------------------------------------------
      1       17           0.000201060    0.000087844   -0.000099913
      2        6           0.000873796   -0.000892506   -0.000352783
      3        1          -0.000175936    0.000016329   -0.000048295
      4        1           0.000079458    0.000225456    0.000061683
      5        1          -0.000088183    0.000076374    0.000222473
      6        8          -0.000519591    0.001498705   -0.000438992
      7        1          -0.000370606   -0.001012202    0.000655826
 -------------------------------------------------------------------
 Cartesian Forces:  Max     0.001498705 RMS     0.000543406

 GradGradGradGradGradGradGradGradGradGradGradGradGradGradGradGradGradGrad
 Berny optimization.
 Using GEDIIS/GDIIS optimizer.
 FormGI is forming the generalized inverse of G from B-inverse, IUseBI=4.
 Internal  Forces:  Max     0.001121990 RMS     0.000412013
 Search for a local minimum.
 Step number   6 out of a maximum of   28
 All quantities printed in internal units (Hartrees-Bohrs-Radians)
 Mixed Optimization -- En-DIIS/RFO-DIIS
 Swapping is turned off.
 Update second derivatives using D2CorX and points    1    2    3    4    5
                                                      6
 DE= -3.40D-05 DEPred=-2.82D-05 R= 1.21D+00
 TightC=F SS=  1.41D+00  RLast= 1.03D-01 DXNew= 8.4853D-01 3.0971D-01
 Trust test= 1.21D+00 RLast= 1.03D-01 DXMaxT set to 5.05D-01
 The second derivative matrix:
                          R1        R2        R3        R4        R5
           R1           0.04525
           R2           0.00448   0.31224
           R3           0.00193  -0.00246   0.32809
           R4           0.00500  -0.00356  -0.00191   0.32292
           R5          -0.00197   0.01059   0.00530   0.01349   0.47486
           R6           0.00236  -0.00762  -0.00855  -0.00870  -0.00243
           A1           0.00069   0.00389   0.00316   0.00375  -0.00285
           A2          -0.00163   0.00373   0.00390   0.00308  -0.00637
           A3           0.00233  -0.00252  -0.00098  -0.00184   0.00618
           A4           0.00029   0.00038   0.00088   0.00036  -0.00035
           A5          -0.00335  -0.00240  -0.00159  -0.00374  -0.00545
           A6           0.00179  -0.00293  -0.00512  -0.00144   0.00887
           A7          -0.01569   0.00139  -0.01024  -0.00312  -0.02747
           A8           0.00391  -0.00097  -0.00303   0.00047  -0.00100
           A9          -0.00591  -0.00021  -0.00059  -0.00012  -0.00962
           D1           0.00891  -0.00103   0.00218  -0.00110   0.00618
           D2           0.00842   0.00106   0.00061   0.00249   0.00898
           D3           0.00961  -0.00127   0.00189  -0.00024   0.00938
                          R6        A1        A2        A3        A4
           R6           0.48075
           A1          -0.00110   0.15766
           A2          -0.00137  -0.00096   0.15977
           A3          -0.00562   0.00253   0.00273   0.15871
           A4          -0.00303   0.00153   0.00132   0.00061   0.16113
           A5           0.00444  -0.00003   0.00043  -0.00187  -0.00109
           A6           0.00603  -0.00057  -0.00309  -0.00260  -0.00322
           A7           0.05035  -0.01345  -0.01731  -0.00301  -0.00953
           A8           0.00009   0.00207   0.00152  -0.00037   0.00323
           A9           0.00905  -0.00207  -0.00210  -0.00073  -0.00214
           D1          -0.01226   0.00216   0.00366   0.00071   0.00216
           D2          -0.00571  -0.00149  -0.00018   0.00099   0.00137
           D3          -0.01347   0.00217   0.00394   0.00036   0.00237
                          A5        A6        A7        A8        A9
           A5           0.16228
           A6           0.00009   0.16887
           A7           0.01278   0.02849   0.25731
           A8          -0.00358  -0.00240  -0.00285   0.03102
           A9           0.00271   0.00396   0.01306  -0.00144   0.01625
[...]
      4          1           0       -1.676885   -1.091058   -0.891721
      5          1           0       -3.021015   -0.313975    0.000031
      6          8           0       -1.289848    0.765694   -0.000000
      7          1           0       -0.309701    0.592102   -0.000003
 ---------------------------------------------------------------------
 Rotational constants (GHZ):     30.2456808      2.7164873      2.5326561
 Standard basis: Aug-CC-pVDZ (5D, 7F)
 There are   115 symmetry adapted cartesian basis functions of A   symmetry.
 There are   109 symmetry adapted basis functions of A   symmetry.
   109 basis functions,   211 primitive gaussians,   115 cartesian basis functions
    18 alpha electrons       18 beta electrons
       nuclear repulsion energy        89.4714636932 Hartrees.
 NAtoms=    7 NActive=    7 NUniq=    7 SFac= 1.00D+00 NAtFMM=   60 NAOKFM=F Big=F
 Integral buffers will be    131072 words long.
 Raffenetti 2 integral format.
 Two-electron integral symmetry is turned on.
 One-electron integrals computed using PRISM.
 NBasis=   109 RedAO= T EigKep=  5.33D-04  NBF=   109
 NBsUse=   109 1.00D-06 EigRej= -1.00D+00 NBFU=   109
 Initial guess from the checkpoint file:  "/localscratch/rjackson.18103347.0/Gau-79629.chk"
 B after Tr=    -0.000000    0.000000    0.000000
         Rot=    1.000000   -0.000074   -0.000016   -0.000004 Ang=  -0.01 deg.
 Keep R1 ints in memory in canonical form, NReq=19024677.
 Requested convergence on RMS density matrix=1.00D-08 within 256 cycles.
 Requested convergence on MAX density matrix=1.00D-06.
 Requested convergence on             energy=1.00D-06.
 No special actions if energy rises.
 SCF Done:  E(RB3LYP) =  -576.064518782     A.U. after    6 cycles
            NFock=  6  Conv=0.59D-08     -V/T= 2.0031
 Calling FoFJK, ICntrl=      2127 FMM=F ISym2X=0 I1Cent= 0 IOpClX= 0 NMat=1 NMatS=1 NMatT=0.
 ***** Axes restored to original set *****
 -------------------------------------------------------------------
 Center     Atomic                   Forces (Hartrees/Bohr)
 Number     Number              X              Y              Z
 -------------------------------------------------------------------
      1       17           0.000000161    0.000000081   -0.000000010
      2        6          -0.000000010    0.000001700   -0.000001741
      3        1           0.000000229    0.000000206    0.000000748
      4        1           0.000000452   -0.000001212    0.000000331
      5        1           0.000000046   -0.000000245    0.000000885
      6        8          -0.000000794   -0.000000046   -0.000000090
      7        1          -0.000000084   -0.000000484   -0.000000123
 -------------------------------------------------------------------
 Cartesian Forces:  Max     0.000001741 RMS     0.000000695

 GradGradGradGradGradGradGradGradGradGradGradGradGradGradGradGradGradGrad
 Berny optimization.
 Using GEDIIS/GDIIS optimizer.
 FormGI is forming the generalized inverse of G from B-inverse, IUseBI=4.
 Internal  Forces:  Max     0.000001124 RMS     0.000000570
 Search for a local minimum.
 Step number  14 out of a maximum of   28
 All quantities printed in internal units (Hartrees-Bohrs-Radians)
 Mixed Optimization -- En-DIIS/RFO-DIIS
 Swapping is turned off.
 Update second derivatives using D2CorX and points    7    8    9   10   11
                                                     12   13   14
 DE= -4.63D-09 DEPred=-4.42D-09 R= 1.05D+00
 Trust test= 1.05D+00 RLast= 1.94D-03 DXMaxT set to 8.49D-01
 The second derivative matrix:
                          R1        R2        R3        R4        R5
           R1           0.01923
           R2          -0.00053   0.30876
           R3           0.00256   0.00027   0.32418
           R4           0.00281  -0.00473   0.00019   0.32984
           R5          -0.00225   0.01580   0.01859   0.01699   0.35451
           R6           0.03001  -0.00950  -0.00017  -0.00389   0.00547
           A1           0.00106   0.00802   0.00092   0.00745  -0.01117
           A2           0.00252   0.01198  -0.00166   0.00141  -0.01703
           A3           0.00011   0.00008  -0.00526  -0.00764   0.02502
           A4          -0.00616  -0.00698   0.00984  -0.00414  -0.04320
           A5          -0.00091  -0.00373  -0.00384  -0.00831   0.01740
           A6           0.00323  -0.00912   0.00062   0.01136   0.02495
           A7           0.00076  -0.00430  -0.00999   0.00301   0.04819
           A8           0.00526  -0.00110  -0.00296   0.00002   0.00052
           A9           0.00095  -0.00049  -0.00044  -0.00070  -0.00101
           D1           0.00105  -0.00033   0.00091  -0.00705  -0.00756
           D2           0.00213   0.00318  -0.00125   0.00847   0.01820
           D3          -0.00331  -0.00663   0.00439  -0.00249  -0.01079
                          R6        A1        A2        A3        A4
           R6           0.43995
           A1           0.00816   0.15149
           A2           0.01164  -0.01043   0.14820
           A3          -0.00083  -0.00018   0.00675   0.16638
           A4          -0.01408   0.00408   0.00985   0.00576   0.14196
           A5          -0.00341   0.00124   0.00709  -0.00021   0.00603
           A6          -0.00162   0.01348  -0.00179  -0.01806  -0.00829
           A7           0.01755   0.00304  -0.00471  -0.01606   0.00686
           A8          -0.00227   0.00139   0.00246  -0.00009   0.00429
           A9          -0.00299  -0.00252   0.00070   0.00097   0.00121
           D1          -0.00077  -0.00033   0.00313   0.00558   0.00174
           D2           0.01127  -0.00317  -0.00504  -0.00349   0.00062
           D3          -0.00981   0.00334   0.00396  -0.00342  -0.00302
                          A5        A6        A7        A8        A9
           A5           0.15995
           A6          -0.01345   0.18820
           A7          -0.00919   0.02069   0.18878
           A8          -0.00351  -0.00399  -0.00610   0.03129
           A9           0.00278  -0.00324  -0.00281  -0.00067   0.02643
           D1           0.00618  -0.01626  -0.00690   0.00040   0.00027
           D2          -0.00452   0.01544   0.00442   0.00091  -0.00260
           D3           0.00055  -0.00121   0.00199   0.00058  -0.00089
                          D1        D2        D3
           D1           0.01449
           D2          -0.00859   0.01730
           D3          -0.00567  -0.00792   0.01637
 ITU=  0  0  1  1  1  1  1  1  1  1  1  1  0  0
     Eigenvalues ---    0.00100   0.01459   0.02652   0.03248   0.09520
     Eigenvalues ---    0.10421   0.11994   0.15820   0.17049   0.21740
     Eigenvalues ---    0.30534   0.32221   0.33127   0.39045   0.44529
 En-DIIS/RFO-DIIS IScMMF=        0 using points:    14   13   12   11   10
 RFO step:  Lambda=-1.36412440D-11.
 DidBck=F Rises=F RFO-DIIS coefs:    1.09161   -0.08543   -0.00960    0.00421   -0.00079
 Iteration  1 RMS(Cart)=  0.00002249 RMS(Int)=  0.00000000
 Iteration  2 RMS(Cart)=  0.00000000 RMS(Int)=  0.00000000
 Variable       Old X    -DE/DX   Delta X   Delta X   Delta X     New X
                                 (Linear)    (Quad)   (Total)
    R1        3.97027  -0.00000  -0.00001  -0.00001  -0.00001   3.97026
    R2        2.09097   0.00000   0.00000   0.00000   0.00000   2.09097
    R3        2.09098  -0.00000  -0.00000  -0.00000  -0.00000   2.09097
    R4        2.08350  -0.00000  -0.00000  -0.00000  -0.00000   2.08350
    R5        2.66168   0.00000   0.00000  -0.00000   0.00000   2.66168
    R6        1.88103   0.00000   0.00000   0.00000   0.00000   1.88103
    A1        1.87432   0.00000   0.00000   0.00000   0.00000   1.87433
    A2        1.89009  -0.00000  -0.00000  -0.00000  -0.00001   1.89008
    A3        1.96053   0.00000  -0.00000   0.00000   0.00000   1.96053
    A4        1.89007   0.00000   0.00000   0.00000   0.00001   1.89008
    A5        1.96053  -0.00000  -0.00000  -0.00001  -0.00001   1.96053
    A6        1.88611   0.00000   0.00000   0.00000   0.00000   1.88611
    A7        1.86911   0.00000   0.00000   0.00000   0.00001   1.86911
    A8        3.00644   0.00000   0.00001   0.00000   0.00001   3.00645
    A9        3.07500   0.00000  -0.00001   0.00002   0.00001   3.07501
    D1        1.05763   0.00000   0.00003   0.00001   0.00003   1.05766
    D2       -1.05770   0.00000   0.00003   0.00001   0.00003  -1.05767
    D3        3.14157  -0.00000   0.00002   0.00000   0.00003  -3.14159
         Item               Value     Threshold  Converged?
 Maximum Force            0.000001     0.000015     YES
 RMS     Force            0.000001     0.000010     YES
 Maximum Displacement     0.000046     0.000060     YES
 RMS     Displacement     0.000022     0.000040     YES
 Predicted change in Energy=-1.995226D-11
 Optimization completed.
    -- Stationary point found.
                           ----------------------------
                           !   Optimized Parameters   !
                           ! (Angstroms and Degrees)  !
 --------------------------                            --------------------------
 ! Name  Definition              Value          Derivative Info.                !
 --------------------------------------------------------------------------------
 ! R1    R(1,7)                  2.101          -DE/DX =    0.0                 !
 ! R2    R(2,3)                  1.1065         -DE/DX =    0.0                 !
 ! R3    R(2,4)                  1.1065         -DE/DX =    0.0                 !
 ! R4    R(2,5)                  1.1025         -DE/DX =    0.0                 !
 ! R5    R(2,6)                  1.4085         -DE/DX =    0.0                 !
 ! R6    R(6,7)                  0.9954         -DE/DX =    0.0                 !
 ! A1    A(3,2,4)              107.3908         -DE/DX =    0.0                 !
 ! A2    A(3,2,5)              108.2939         -DE/DX =    0.0                 !
 ! A3    A(3,2,6)              112.3299         -DE/DX =    0.0                 !
 ! A4    A(4,2,5)              108.2928         -DE/DX =    0.0                 !
 ! A5    A(4,2,6)              112.3303         -DE/DX =    0.0                 !
 ! A6    A(5,2,6)              108.0659         -DE/DX =    0.0                 !
 ! A7    A(2,6,7)              107.0919         -DE/DX =    0.0                 !
 ! A8    L(1,7,6,4,-1)         172.2563         -DE/DX =    0.0                 !
 ! A9    L(1,7,6,4,-2)         176.1847         -DE/DX =    0.0                 !
 ! D1    D(3,2,6,7)             60.5979         -DE/DX =    0.0                 !
 ! D2    D(4,2,6,7)            -60.6019         -DE/DX =    0.0                 !
 ! D3    D(5,2,6,7)           -180.0014         -DE/DX =    0.0                 !
 --------------------------------------------------------------------------------
 GradGradGradGradGradGradGradGradGradGradGradGradGradGradGradGradGradGrad

                          Input orientation:                          
 ---------------------------------------------------------------------
 Center     Atomic      Atomic             Coordinates (Angstroms)
 Number     Number       Type             X           Y           Z
 ---------------------------------------------------------------------
      1         17           0       -0.796788   -2.308510    0.020073
      2          6           0        1.243032    0.701668    0.126829
      3          1           0        0.833778    0.718327    1.154722
      4          1           0        0.441203    1.045024   -0.553991
      5          1           0        2.074754    1.423486    0.073737
      6          8           0        1.741664   -0.566320   -0.230157
      7          1           0        0.980417   -1.205495   -0.177432
 ---------------------------------------------------------------------
                    Distance matrix (angstroms):
                    1          2          3          4          5
     1  Cl   0.000000
     2  C    3.637779   0.000000
     3  H    3.620485   1.106494   0.000000
     4  H    3.620546   1.106498   1.783408   0.000000
     5  H    4.709185   1.102543   1.790474   1.790465   0.000000
     6  O    3.088944   1.408498   2.095820   2.095828   2.040252
     7  H    2.100978   1.949054   2.344616   2.344649   2.858706
                    6          7
     6  O    0.000000
     7  H    0.995400   0.000000
 Stoichiometry    CH4ClO(1-)
 Framework group  C1[X(CH4ClO)]
 Deg. of freedom    15
 Full point group                 C1      NOp   1
 Largest Abelian subgroup         C1      NOp   1
 Largest concise Abelian subgroup C1      NOp   1
                         Standard orientation:                         
 ---------------------------------------------------------------------
 Center     Atomic      Atomic             Coordinates (Angstroms)
 Number     Number       Type             X           Y           Z
 ---------------------------------------------------------------------
      1         17           0        1.682162   -0.076171   -0.000000
      2          6           0       -1.932257   -0.487772    0.000002
      3          1           0       -1.676822   -1.091079    0.891687
      4          1           0       -1.676885   -1.091058   -0.891721
      5          1           0       -3.021015   -0.313975    0.000031
      6          8           0       -1.289848    0.765694   -0.000000
      7          1           0       -0.309701    0.592102   -0.000003
 ---------------------------------------------------------------------
 Rotational constants (GHZ):     30.2456808      2.7164873      2.5326561

 **********************************************************************

            Population analysis using the SCF density.

 **********************************************************************

 Orbital symmetries:
       Occupied  (A) (A) (A) (A) (A) (A) (A) (A) (A) (A) (A) (A)
                 (A) (A) (A) (A) (A) (A)
       Virtual   (A) (A) (A) (A) (A) (A) (A) (A) (A) (A) (A) (A)
                 (A) (A) (A) (A) (A) (A) (A) (A) (A) (A) (A) (A)
                 (A) (A) (A) (A) (A) (A) (A) (A) (A) (A) (A) (A)
                 (A) (A) (A) (A) (A) (A) (A) (A) (A) (A) (A) (A)
                 (A) (A) (A) (A) (A) (A) (A) (A) (A) (A) (A) (A)
                 (A) (A) (A) (A) (A) (A) (A) (A) (A) (A) (A) (A)
                 (A) (A) (A) (A) (A) (A) (A) (A) (A) (A) (A) (A)
                 (A) (A) (A) (A) (A) (A) (A)
 The electronic state is 1-A.
 Alpha  occ. eigenvalues -- -101.25805 -18.97323 -10.08144  -9.17348  -6.93037
 Alpha  occ. eigenvalues --   -6.92958  -6.92955  -0.84949  -0.52808  -0.51479
 Alpha  occ. eigenvalues --   -0.34255  -0.28656  -0.27406  -0.18197  -0.11272
 Alpha  occ. eigenvalues --   -0.06446  -0.05825  -0.05767
 Alpha virt. eigenvalues --    0.09782   0.12695   0.13470   0.14766   0.18349
 Alpha virt. eigenvalues --    0.20794   0.21073   0.22671   0.24602   0.24919
 Alpha virt. eigenvalues --    0.25798   0.28535   0.28797   0.29858   0.29895
 Alpha virt. eigenvalues --    0.31590   0.35748   0.37241   0.40276   0.41626
 Alpha virt. eigenvalues --    0.41785   0.44917   0.46625   0.46979   0.49625
 Alpha virt. eigenvalues --    0.49695   0.52491   0.55175   0.55598   0.58270
 Alpha virt. eigenvalues --    0.59054   0.60866   0.61000   0.64914   0.67944
 Alpha virt. eigenvalues --    0.68548   0.70534   0.71681   0.71872   0.74324
 Alpha virt. eigenvalues --    0.75737   0.77648   0.87950   0.90234   0.90417
 Alpha virt. eigenvalues --    0.96728   0.97782   1.00529   1.02188   1.06570
 Alpha virt. eigenvalues --    1.09876   1.13782   1.20540   1.26179   1.32003
 Alpha virt. eigenvalues --    1.35905   1.39154   1.40919   1.41947   1.47887
 Alpha virt. eigenvalues --    1.48181   1.51763   1.55333   1.62908   1.63487
 Alpha virt. eigenvalues --    1.65969   1.72114   1.76838   1.81216   1.83939
 Alpha virt. eigenvalues --    1.98060   1.99536   2.00238   2.05655   2.09575
 Alpha virt. eigenvalues --    2.12657   2.22916   2.28628   2.42755   2.47549
 Alpha virt. eigenvalues --    2.55993   2.60965   2.69686   2.70850   2.90048
 Alpha virt. eigenvalues --    3.03024   3.53894   3.55141   3.59842   3.69439
 Alpha virt. eigenvalues --    4.06522
          Condensed to atoms (all electrons):
               1          2          3          4          5          6
     1  Cl  17.907337  -0.002492   0.005353   0.005353  -0.002800  -0.071000
     2  C   -0.002492   3.855583   0.254181   0.254183   0.260357   0.157563
     3  H    0.005353   0.254181   1.668513  -0.208767  -0.379811  -0.018134
     4  H    0.005353   0.254183  -0.208767   1.668492  -0.379801  -0.018133
     5  H   -0.002800   0.260357  -0.379811  -0.379801   2.081516  -0.174762
     6  O   -0.071000   0.157563  -0.018134  -0.018133  -0.174762   8.300865
     7  H    0.072878  -0.051795  -0.016496  -0.016498   0.038148   0.259973
               7
     1  Cl   0.072878
     2  C   -0.051795
     3  H   -0.016496
     4  H   -0.016498
     5  H    0.038148
     6  O    0.259973
     7  H    0.582690
 Mulliken charges:
               1
     1  Cl  -0.914629
     2  C    1.272420
     3  H   -0.304839
     4  H   -0.304831
     5  H   -0.442848
     6  O   -0.436373
     7  H    0.131099
 Sum of Mulliken charges =  -1.00000
 Mulliken charges with hydrogens summed into heavy atoms:
               1
     1  Cl  -0.914629
     2  C    0.219903
     6  O   -0.305274
 Electronic spatial extent (au):  <R**2>=            473.0533
 Charge=             -1.0000 electrons
 Dipole moment (field-independent basis, Debye):
    X=             -5.0593    Y=             -1.1246    Z=              0.0000  Tot=              5.1828
 Quadrupole moment (field-independent basis, Debye-Ang):
   XX=            -46.3171   YY=            -33.3129   ZZ=            -31.6594
   XY=              3.1118   XZ=              0.0000   YZ=             -0.0000
 Traceless Quadrupole moment (field-independent basis, Debye-Ang):
   XX=             -9.2206   YY=              3.7835   ZZ=              5.4370
   XY=              3.1118   XZ=              0.0000   YZ=             -0.0000
 Octapole moment (field-independent basis, Debye-Ang**2):
  XXX=            -29.0997  YYY=              2.1410  ZZZ=             -0.0000  XYY=             -0.7482
  XXY=             -0.9265  XXZ=              0.0000  XZZ=             -4.0436  YZZ=              0.4925
  YYZ=              0.0000  XYZ=             -0.0000
 Hexadecapole moment (field-independent basis, Debye-Ang**3):
 XXXX=           -620.8322 YYYY=            -92.6456 ZZZZ=            -53.9875 XXXY=             -2.0457
 XXXZ=             -0.0000 YYYX=             -0.2854 YYYZ=             -0.0001 ZZZX=              0.0000
 ZZZY=             -0.0000 XXYY=           -120.1317 XXZZ=           -109.4285 YYZZ=            -24.5796
 XXYZ=              0.0000 YYXZ=             -0.0000 ZZXY=             -0.4503
 N-N= 8.947146369324D+01 E-N=-1.552939499640D+03  KE= 5.742565200821D+02
 1\1\GINC-CDR674\FOpt\RB3LYP\Aug-CC-pVDZ\C1H4Cl1O1(1-)\RJACKSON\12-Mar-
 2019\0\\# b3lyp/aug-cc-PVDZ opt(tight) integral(grid=superfine) scf(ma
 xcyc=256)\\OH-chloromethane_reactant\\-1,1\Cl,-0.7967881946,-2.3085095
 496,0.0200726644\C,1.2430320138,0.7016684554,0.1268290483\H,0.83377815
 88,0.718326789,1.1547216617\H,0.4412034906,1.0450235438,-0.5539910581\
 H,2.0747541887,1.4234856383,0.0737369253\O,1.7416637482,-0.5663201997,
 -0.230157156\H,0.9804165946,-1.2054946771,-0.1774320856\\Version=EM64L
 -G09RevE.01\State=1-A\HF=-576.0645188\RMSD=5.871e-09\RMSF=6.947e-07\Di
 pole=0.9659135,1.7917164,0.1205833\Quadrupole=-3.3660188,-0.5712956,3.
 9373145,-5.1763407,0.7127085,0.3074377\PG=C01 [X(C1H4Cl1O1)]\\@


 Any fool can criticize, condemn, and complain -- and most do.
 -- Dale Carnegie
 Job cpu time:       0 days  0 hours 21 minutes 17.8 seconds.
 File lengths (MBytes):  RWF=      8 Int=      0 D2E=      0 Chk=      2 Scr=      1
 Normal termination of Gaussian 09 at Tue Mar 12 04:08:07 2019.
