 Entering Gaussian System, Link 0=g09
 Initial command:
 /opt/software/gaussian/g09.e01/l1.exe "/localscratch/rjackson.18103347.0/Gau-112681.inp" -scrdir="/localscratch/rjackson.18103347.0/"
 Entering Link 1 = /opt/software/gaussian/g09.e01/l1.exe PID=    112682.
  
 Copyright (c) 1988,1990,1992,1993,1995,1998,2003,2009,2015,
            Gaussian, Inc.  All Rights Reserved.
  
 This is part of the Gaussian(R) 09 program.  It is based on
 the Gaussian(R) 03 system (copyright 2003, Gaussian, Inc.),
 the Gaussian(R) 98 system (copyright 1998, Gaussian, Inc.),
 the Gaussian(R) 94 system (copyright 1995, Gaussian, Inc.),
 the Gaussian 92(TM) system (copyright 1992, Gaussian, Inc.),
 the Gaussian 90(TM) system (copyright 1990, Gaussian, Inc.),
 the Gaussian 88(TM) system (copyright 1988, Gaussian, Inc.),
 the Gaussian 86(TM) system (copyright 1986, Carnegie Mellon
 University), and the Gaussian 82(TM) system (copyright 1983,
 Carnegie Mellon University). Gaussian is a federally registered
 trademark of Gaussian, Inc.
  
 This software contains proprietary and confidential information,
 including trade secrets, belonging to Gaussian, Inc.
  
 This software is provided under written license and may be
 used, copied, transmitted, or stored only in accord with that
 written license.
  
 The following legend is applicable only to US Government
 contracts under FAR:
  
                    RESTRICTED RIGHTS LEGEND
  
 Use, reproduction and disclosure by the US Government is
 subject to restrictions as set forth in subparagraphs (a)
 and (c) of the Commercial Computer Software - Restricted
 Rights clause in FAR 52.227-19.
  
 Gaussian, Inc.
 340 Quinnipiac St., Bldg. 40, Wallingford CT 06492
  
  
 ---------------------------------------------------------------
 Warning -- This program may not be used in any manner that
 competes with the business of Gaussian, Inc. or will provide
 assistance to any competitor of Gaussian, Inc.  The licensee
 of this program is prohibited from giving any competitor of
 Gaussian, Inc. access to this program.  By using this program,
 the user acknowledges that Gaussian, Inc. is engaged in the
 business of creating and licensing software in the field of
 computational chemistry and represents and warrants to the
 licensee that it is not a competitor of Gaussian, Inc. and that
 it will not use this program in any manner prohibited above.
 ---------------------------------------------------------------
  

 Cite this work as:
 Gaussian 09, Revision E.01,
 M. J. Frisch, G. W. Trucks, H. B. Schlegel, G. E. Scuseria, 
 M. A. Robb, J. R. Cheeseman, G. Scalmani, V. Barone, B. Mennucci, 
 G. A. Petersson, H. Nakatsuji, M. Caricato, X. Li, H. P. Hratchian, 
 A. F. Izmaylov, J. Bloino, G. Zheng, J. L. Sonnenberg, M. Hada, 
 M. Ehara, K. Toyota, R. Fukuda, J. Hasegawa, M. Ishida, T. Nakajima, 
 Y. Honda, O. Kitao, H. Nakai, T. Vreven, J. A. Montgomery, Jr., 
 J. E. Peralta, F. Ogliaro, M. Bearpark, J. J. Heyd, E. Brothers, 
 K. N. Kudin, V. N. Staroverov, T. Keith, R. Kobayashi, J. Normand, 
 K. Raghavachari, A. Rendell, J. C. Burant, S. S. Iyengar, J. Tomasi, 
 M. Cossi, N. Rega, J. M. Millam, M. Klene, J. E. Knox, J. B. Cross, 
 V. Bakken, C. Adamo, J. Jaramillo, R. Gomperts, R. E. Stratmann, 
 O. Yazyev, A. J. Austin, R. Cammi, C. Pomelli, J. W. Ochterski, 
 R. L. Martin, K. Morokuma, V. G. Zakrzewski, G. A. Voth, 
 P. Salvador, J. J. Dannenberg, S. Dapprich, A. D. Daniels, 
 O. Farkas, J. B. Foresman, J. V. Ortiz, J. Cioslowski, 
 and D. J. Fox, Gaussian, Inc., Wallingford CT, 2013.
 
 ******************************************
 Gaussian 09:  EM64L-G09RevE.01 30-Nov-2015
                12-Mar-2019 
 ******************************************
 ----------------------------------------------------------------------
 # b3lyp/aug-cc-PVDZ opt(tight) integral(grid=superfine) scf(maxcyc=256
 )
 ----------------------------------------------------------------------
 1/7=10,14=-1,18=20,19=15,26=5,38=1/1,3;
 2/9=110,12=2,17=6,18=5,40=1/2;
 3/5=16,7=10,11=2,16=1,25=1,30=1,71=1,74=-5,75=-7/1,2,3;
 4//1;
 5/5=2,7=256,38=5/2;
 6/7=2,8=2,9=2,10=2,28=1/1;
 7//1,2,3,16;
 1/7=10,14=-1,18=20,19=15,26=5/3(2);
 2/9=110/2;
 99//99;
 2/9=110/2;
 3/5=16,7=10,11=2,16=1,25=1,30=1,71=1,74=-5,75=-7/1,2,3;
 4/5=5,16=3,69=1/1;
 5/5=2,7=256,38=5/2;
 7//1,2,3,16;
 1/7=10,14=-1,18=20,19=15,26=5/3(-5);
 2/9=110/2;
 6/7=2,8=2,9=2,10=2,19=2,28=1/1;
 99/9=1/99;
 ------------------------
 OH-chloromethane_product
 ------------------------
 Symbolic Z-matrix:
 Charge = -1 Multiplicity = 1
 Cl                   -0.93936  -0.71251  -0.46751 
 C                     0.30478   0.43324   0.54019 
 H                    -0.08074   0.23035   1.56968 
 H                     1.99675  -0.013     0.03337 
 H                    -0.1478    1.42528   0.29385 
 O                     2.87418  -0.3843   -0.36043 
 H                     2.48711  -1.04343  -0.95724 
 
 Add virtual bond connecting atoms H4         and C2         Dist= 3.44D+00.

 GradGradGradGradGradGradGradGradGradGradGradGradGradGradGradGradGradGrad
 Berny optimization.
 Initialization pass.
                           ----------------------------
                           !    Initial Parameters    !
                           ! (Angstroms and Degrees)  !
 --------------------------                            --------------------------
 ! Name  Definition              Value          Derivative Info.                !
 --------------------------------------------------------------------------------
 ! R1    R(1,2)                  1.9688         estimate D2E/DX2                !
 ! R2    R(2,3)                  1.1179         estimate D2E/DX2                !
 ! R3    R(2,4)                  1.8217         estimate D2E/DX2                !
 ! R4    R(2,5)                  1.1179         estimate D2E/DX2                !
 ! R5    R(4,6)                  1.0309         estimate D2E/DX2                !
 ! R6    R(6,7)                  0.9698         estimate D2E/DX2                !
 ! A1    A(1,2,3)               98.5002         estimate D2E/DX2                !
 ! A2    A(1,2,4)              107.576          estimate D2E/DX2                !
 ! A3    A(1,2,5)               98.5003         estimate D2E/DX2                !
 ! A4    A(3,2,4)              122.1442         estimate D2E/DX2                !
 ! A5    A(3,2,5)              102.9666         estimate D2E/DX2                !
 ! A6    A(4,2,5)              122.1467         estimate D2E/DX2                !
 ! A7    A(4,6,7)               98.0571         estimate D2E/DX2                !
 ! A8    L(2,4,6,7,-1)         170.0513         estimate D2E/DX2                !
 ! A9    L(2,4,6,7,-2)         180.0003         estimate D2E/DX2                !
 ! D1    D(1,2,6,7)             -0.0075         estimate D2E/DX2                !
 ! D2    D(3,2,6,7)            110.3036         estimate D2E/DX2                !
 ! D3    D(5,2,6,7)           -110.3206         estimate D2E/DX2                !
 --------------------------------------------------------------------------------
 Trust Radius=3.00D-01 FncErr=1.00D-07 GrdErr=1.00D-07
 Number of steps in this run=     28 maximum allowed number of steps=    100.
 GradGradGradGradGradGradGradGradGradGradGradGradGradGradGradGradGradGrad

                          Input orientation:                          
 ---------------------------------------------------------------------
 Center     Atomic      Atomic             Coordinates (Angstroms)
 Number     Number       Type             X           Y           Z
 ---------------------------------------------------------------------
      1         17           0       -0.939361   -0.712508   -0.467509
      2          6           0        0.304781    0.433244    0.540188
      3          1           0       -0.080738    0.230354    1.569680
      4          1           0        1.996749   -0.012996    0.033370
      5          1           0       -0.147800    1.425278    0.293850
      6          8           0        2.874183   -0.384299   -0.360434
      7          1           0        2.487107   -1.043434   -0.957236
 ---------------------------------------------------------------------
                    Distance matrix (angstroms):
                    1          2          3          4          5
     1  Cl   0.000000
     2  C    1.968779   0.000000
     3  H    2.403406   1.117874   0.000000
     4  H    3.059565   1.821744   2.595269   0.000000
     5  H    2.403407   1.117875   1.749309   2.595298   0.000000
     6  O    3.829139   2.842767   3.582554   1.030940   3.582602
     7  H    3.477072   3.030743   3.821213   1.511143   3.821320
                    6          7
     6  O    0.000000
     7  H    0.969773   0.000000
 Stoichiometry    CH4ClO(1-)
 Framework group  C1[X(CH4ClO)]
 Deg. of freedom    15
 Full point group                 C1      NOp   1
 Largest Abelian subgroup         C1      NOp   1
 Largest concise Abelian subgroup C1      NOp   1
                         Standard orientation:                         
 ---------------------------------------------------------------------
 Center     Atomic      Atomic             Coordinates (Angstroms)
 Number     Number       Type             X           Y           Z
 ---------------------------------------------------------------------
      1         17           0       -1.337504   -0.388933   -0.000003
      2          6           0       -0.012857    1.067569    0.000003
      3          1           0       -0.401948    1.644786    0.874687
      4          1           0        1.642084    0.306043   -0.000025
      5          1           0       -0.401999    1.644841   -0.874622
      6          8           0        2.490091   -0.280234   -0.000014
      7          1           0        2.055847   -1.147351    0.000109
 ---------------------------------------------------------------------
 Rotational constants (GHZ):     17.7728388      2.9657446      2.5816666
 Standard basis: Aug-CC-pVDZ (5D, 7F)
 There are   115 symmetry adapted cartesian basis functions of A   symmetry.
 There are   109 symmetry adapted basis functions of A   symmetry.
   109 basis functions,   211 primitive gaussians,   115 cartesian basis functions
    18 alpha electrons       18 beta electrons
       nuclear repulsion energy        88.8031364214 Hartrees.
 NAtoms=    7 NActive=    7 NUniq=    7 SFac= 1.00D+00 NAtFMM=   60 NAOKFM=F Big=F
 Integral buffers will be    131072 words long.
 Raffenetti 2 integral format.
 Two-electron integral symmetry is turned on.
 One-electron integrals computed using PRISM.
 NBasis=   109 RedAO= T EigKep=  6.98D-04  NBF=   109
 NBsUse=   109 1.00D-06 EigRej= -1.00D+00 NBFU=   109
 ExpMin= 2.97D-02 ExpMax= 1.28D+05 ExpMxC= 1.24D+03 IAcc=3 IRadAn=         7 AccDes= 0.00D+00
 Harris functional with IExCor=  402 and IRadAn=       7 diagonalized for initial guess.
 HarFok:  IExCor=  402 AccDes= 0.00D+00 IRadAn=         7 IDoV= 1 UseB2=F ITyADJ=14
 ICtDFT=  3500011 ScaDFX=  1.000000  1.000000  1.000000  1.000000
 FoFCou: FMM=F IPFlag=           0 FMFlag=      100000 FMFlg1=           0
         NFxFlg=           0 DoJE=T BraDBF=F KetDBF=T FulRan=T
         wScrn=  0.000000 ICntrl=     500 IOpCl=  0 I1Cent=   200000004 NGrid=           0
         NMat0=    1 NMatS0=      1 NMatT0=    0 NMatD0=    1 NMtDS0=    0 NMtDT0=    0
 Petite list used in FoFCou.
 Keep R1 ints in memory in canonical form, NReq=19024677.
 Requested convergence on RMS density matrix=1.00D-08 within 256 cycles.
 Requested convergence on MAX density matrix=1.00D-06.
 Requested convergence on             energy=1.00D-06.
 No special actions if energy rises.
 SCF Done:  E(RB3LYP) =  -575.974308372     A.U. after   12 cycles
            NFock= 12  Conv=0.74D-08     -V/T= 2.0031

 **********************************************************************

            Population analysis using the SCF density.

 **********************************************************************

 Orbital symmetries:
       Occupied  (A) (A) (A) (A) (A) (A) (A) (A) (A) (A) (A) (A)
                 (A) (A) (A) (A) (A) (A)
       Virtual   (A) (A) (A) (A) (A) (A) (A) (A) (A) (A) (A) (A)
                 (A) (A) (A) (A) (A) (A) (A) (A) (A) (A) (A) (A)
                 (A) (A) (A) (A) (A) (A) (A) (A) (A) (A) (A) (A)
                 (A) (A) (A) (A) (A) (A) (A) (A) (A) (A) (A) (A)
                 (A) (A) (A) (A) (A) (A) (A) (A) (A) (A) (A) (A)
                 (A) (A) (A) (A) (A) (A) (A) (A) (A) (A) (A) (A)
                 (A) (A) (A) (A) (A) (A) (A) (A) (A) (A) (A) (A)
                 (A) (A) (A) (A) (A) (A) (A)
 The electronic state is 1-A.
 Alpha  occ. eigenvalues -- -101.33176 -18.94216 -10.00372  -9.24759  -7.00838
 Alpha  occ. eigenvalues --   -7.00161  -7.00142  -0.79494  -0.61257  -0.43418
 Alpha  occ. eigenvalues --   -0.29993  -0.20617  -0.20382  -0.17310  -0.12638
 Alpha  occ. eigenvalues --   -0.11216  -0.10127  -0.01658
 Alpha virt. eigenvalues --    0.11741   0.13027   0.14111   0.14500   0.16837
 Alpha virt. eigenvalues --    0.21622   0.21973   0.23346   0.23477   0.24056
 Alpha virt. eigenvalues --    0.24225   0.26880   0.28286   0.29607   0.30600
 Alpha virt. eigenvalues --    0.33820   0.33834   0.35507   0.39571   0.42461
 Alpha virt. eigenvalues --    0.43236   0.44461   0.45517   0.46155   0.51402
 Alpha virt. eigenvalues --    0.51521   0.53995   0.54205   0.55218   0.58856
 Alpha virt. eigenvalues --    0.61081   0.62820   0.63043   0.65872   0.67584
 Alpha virt. eigenvalues --    0.68544   0.68721   0.72811   0.73298   0.78024
 Alpha virt. eigenvalues --    0.79651   0.81088   0.84361   0.95224   0.96767
 Alpha virt. eigenvalues --    0.97579   1.01965   1.05741   1.06091   1.07478
 Alpha virt. eigenvalues --    1.12149   1.15852   1.18996   1.20383   1.31981
 Alpha virt. eigenvalues --    1.34142   1.34999   1.36673   1.38039   1.42760
 Alpha virt. eigenvalues --    1.46196   1.46674   1.50122   1.51906   1.61494
 Alpha virt. eigenvalues --    1.64387   1.68857   1.78700   1.90154   1.90921
 Alpha virt. eigenvalues --    1.96529   1.98581   2.04028   2.05725   2.08639
 Alpha virt. eigenvalues --    2.10959   2.18595   2.26902   2.36311   2.39769
 Alpha virt. eigenvalues --    2.41436   2.61051   2.65168   2.73433   2.74611
 Alpha virt. eigenvalues --    2.94695   3.50492   3.55682   3.57315   3.87328
 Alpha virt. eigenvalues --    4.12293
          Condensed to atoms (all electrons):
               1          2          3          4          5          6
     1  Cl  17.528428   0.030513  -0.089100  -0.016702  -0.089100   0.024640
     2  C    0.030513   5.570148   0.264514   0.073024   0.264507  -0.218229
     3  H   -0.089100   0.264514   1.376540  -0.041032  -0.255420   0.006976
     4  H   -0.016702   0.073024  -0.041032   0.606292  -0.041029   0.221301
     5  H   -0.089100   0.264507  -0.255420  -0.041029   1.376545   0.006974
     6  O    0.024640  -0.218229   0.006976   0.221301   0.006974   7.992417
     7  H   -0.010738   0.041685  -0.005699  -0.087468  -0.005699   0.331485
               7
     1  Cl  -0.010738
     2  C    0.041685
     3  H   -0.005699
     4  H   -0.087468
     5  H   -0.005699
     6  O    0.331485
     7  H    0.738824
 Mulliken charges:
               1
     1  Cl  -0.377942
     2  C   -0.026161
     3  H   -0.256780
     4  H    0.285615
     5  H   -0.256778
     6  O   -0.365564
     7  H   -0.002390
 Sum of Mulliken charges =  -1.00000
 Mulliken charges with hydrogens summed into heavy atoms:
               1
     1  Cl  -0.377942
     2  C   -0.539719
     6  O   -0.082339
 Electronic spatial extent (au):  <R**2>=            462.8729
 Charge=             -1.0000 electrons
 Dipole moment (field-independent basis, Debye):
    X=             -2.0253    Y=             -0.7157    Z=              0.0002  Tot=              2.1481
 Quadrupole moment (field-independent basis, Debye-Ang):
   XX=            -51.8727   YY=            -31.3147   ZZ=            -31.9238
   XY=             -1.4431   XZ=              0.0004   YZ=             -0.0003
 Traceless Quadrupole moment (field-independent basis, Debye-Ang):
   XX=            -13.5023   YY=              7.0557   ZZ=              6.4466
   XY=             -1.4431   XZ=              0.0004   YZ=             -0.0003
 Octapole moment (field-independent basis, Debye-Ang**2):
  XXX=            -34.6167  YYY=            -12.3168  ZZZ=              0.0001  XYY=              5.4645
  XXY=             -0.4350  XXZ=              0.0006  XZZ=             -0.7272  YZZ=             -1.4399
  YYZ=              0.0003  XYZ=             -0.0006
 Hexadecapole moment (field-independent basis, Debye-Ang**3):
 XXXX=           -626.7440 YYYY=           -143.6157 ZZZZ=            -52.1154 XXXY=              7.3781
 XXXZ=              0.0013 YYYX=             -2.9337 YYYZ=             -0.0008 ZZZX=              0.0002
 ZZZY=             -0.0003 XXYY=            -96.5834 XXZZ=            -95.4860 YYZZ=            -32.6566
 XXYZ=             -0.0017 YYXZ=              0.0009 ZZXY=             -0.7336
 N-N= 8.880313642137D+01 E-N=-1.551237460319D+03  KE= 5.741736178353D+02
 Calling FoFJK, ICntrl=      2127 FMM=F ISym2X=0 I1Cent= 0 IOpClX= 0 NMat=1 NMatS=1 NMatT=0.
 ***** Axes restored to original set *****
 -------------------------------------------------------------------
 Center     Atomic                   Forces (Hartrees/Bohr)
 Number     Number              X              Y              Z
 -------------------------------------------------------------------
      1       17           0.001460925    0.000263214    0.000169825
      2        6          -0.005556898    0.003143393    0.003236098
      3        1           0.002800838   -0.000220171   -0.002949331
      4        1          -0.002487382    0.001841620    0.001854763
      5        1           0.002946240   -0.002806860   -0.000187765
      6        8          -0.004231872   -0.003951939   -0.003477294
      7        1           0.005068149    0.001730744    0.001353703
 -------------------------------------------------------------------
 Cartesian Forces:  Max     0.005556898 RMS     0.002893355

 GradGradGradGradGradGradGradGradGradGradGradGradGradGradGradGradGradGrad
 Berny optimization.
 FormGI is forming the generalized inverse of G from B-inverse, IUseBI=4.
 Internal  Forces:  Max     0.006918980 RMS     0.002612294
 Search for a local minimum.
 Step number   1 out of a maximum of   28
 All quantities printed in internal units (Hartrees-Bohrs-Radians)
 Mixed Optimization -- RFO/linear search
 Second derivative matrix not updated -- first step.
 The second derivative matrix:
                          R1        R2        R3        R4        R5
           R1           0.16319
           R2           0.00000   0.31780
           R3           0.00000   0.00000   0.05874
           R4           0.00000   0.00000   0.00000   0.31780
           R5           0.00000   0.00000   0.00000   0.00000   0.42637
           R6           0.00000   0.00000   0.00000   0.00000   0.00000
           A1           0.00000   0.00000   0.00000   0.00000   0.00000
           A2           0.00000   0.00000   0.00000   0.00000   0.00000
           A3           0.00000   0.00000   0.00000   0.00000   0.00000
           A4           0.00000   0.00000   0.00000   0.00000   0.00000
           A5           0.00000   0.00000   0.00000   0.00000   0.00000
           A6           0.00000   0.00000   0.00000   0.00000   0.00000
           A7           0.00000   0.00000   0.00000   0.00000   0.00000
           A8           0.00000   0.00000   0.00000   0.00000   0.00000
           A9           0.00000   0.00000   0.00000   0.00000   0.00000
           D1           0.00000   0.00000   0.00000   0.00000   0.00000
           D2           0.00000   0.00000   0.00000   0.00000   0.00000
           D3           0.00000   0.00000   0.00000   0.00000   0.00000
                          R6        A1        A2        A3        A4
           R6           0.53423
           A1           0.00000   0.16000
           A2           0.00000   0.00000   0.16000
           A3           0.00000   0.00000   0.00000   0.16000
           A4           0.00000   0.00000   0.00000   0.00000   0.16000
           A5           0.00000   0.00000   0.00000   0.00000   0.00000
           A6           0.00000   0.00000   0.00000   0.00000   0.00000
           A7           0.00000   0.00000   0.00000   0.00000   0.00000
           A8           0.00000   0.00000   0.00000   0.00000   0.00000
           A9           0.00000   0.00000   0.00000   0.00000   0.00000
           D1           0.00000   0.00000   0.00000   0.00000   0.00000
           D2           0.00000   0.00000   0.00000   0.00000   0.00000
           D3           0.00000   0.00000   0.00000   0.00000   0.00000
                          A5        A6        A7        A8        A9
           A5           0.16000
           A6           0.00000   0.16000
           A7           0.00000   0.00000   0.16000
           A8           0.00000   0.00000   0.00000   0.00619
           A9           0.00000   0.00000   0.00000   0.00000   0.00619
           D1           0.00000   0.00000   0.00000   0.00000   0.00000
           D2           0.00000   0.00000   0.00000   0.00000   0.00000
           D3           0.00000   0.00000   0.00000   0.00000   0.00000
                          D1        D2        D3
           D1           0.00230
           D2           0.00000   0.00230
           D3           0.00000   0.00000   0.00230
 ITU=  0
     Eigenvalues ---    0.00230   0.00583   0.00615   0.05872   0.06848
     Eigenvalues ---    0.09742   0.16000   0.16000   0.16000   0.16000
     Eigenvalues ---    0.16319   0.31780   0.31780   0.42634   0.53423
 RFO step:  Lambda=-1.45898722D-03 EMin= 2.30000000D-03
 Linear search not attempted -- first point.
 Maximum step size (   0.300) exceeded in Quadratic search.
    -- Step size scaled by   0.884
 Iteration  1 RMS(Cart)=  0.11020127 RMS(Int)=  0.02515421
 Iteration  2 RMS(Cart)=  0.04462563 RMS(Int)=  0.00177242
 Iteration  3 RMS(Cart)=  0.00221878 RMS(Int)=  0.00080741
 Iteration  4 RMS(Cart)=  0.00000074 RMS(Int)=  0.00080741
 Variable       Old X    -DE/DX   Delta X   Delta X   Delta X     New X
                                 (Linear)    (Quad)   (Total)
    R1        3.72045  -0.00116   0.00000  -0.00624  -0.00624   3.71421
    R2        2.11248  -0.00364   0.00000  -0.01008  -0.01008   2.10240
    R3        3.44260  -0.00137   0.00000  -0.02010  -0.02012   3.42248
    R4        2.11248  -0.00364   0.00000  -0.01008  -0.01008   2.10240
    R5        1.94819   0.00232   0.00000   0.00481   0.00484   1.95303
    R6        1.83261  -0.00403   0.00000  -0.00665  -0.00665   1.82595
    A1        1.71915   0.00129   0.00000   0.00622   0.00727   1.72643
    A2        1.87755  -0.00191   0.00000  -0.01148  -0.01020   1.86735
    A3        1.71915   0.00129   0.00000   0.00622   0.00728   1.72643
    A4        2.13182  -0.00123   0.00000  -0.00627  -0.00682   2.12500
    A5        1.79711   0.00255   0.00000   0.01493   0.01352   1.81062
    A6        2.13186  -0.00123   0.00000  -0.00627  -0.00682   2.12504
    A7        1.71142   0.00692   0.00000   0.03786   0.03786   1.74928
    A8        2.96795   0.00265   0.00000   0.29541   0.29603   3.26398
    A9        3.14160   0.00000   0.00000   0.00002   0.00002   3.14161
    D1       -0.00013   0.00000   0.00000   0.00002   0.00002  -0.00011
    D2        1.92516   0.00006   0.00000   0.06142   0.05986   1.98502
    D3       -1.92546  -0.00006   0.00000  -0.06136  -0.05980  -1.98526
         Item               Value     Threshold  Converged?
 Maximum Force            0.006919     0.000015     NO 
 RMS     Force            0.002612     0.000010     NO 
 Maximum Displacement     0.441624     0.000060     NO 
 RMS     Displacement     0.150739     0.000040     NO 
 Predicted change in Energy=-7.914940D-04
 GradGradGradGradGradGradGradGradGradGradGradGradGradGradGradGradGradGrad

                          Input orientation:                          
 ---------------------------------------------------------------------
 Center     Atomic      Atomic             Coordinates (Angstroms)
 Number     Number       Type             X           Y           Z
 ---------------------------------------------------------------------
      1         17           0       -1.072493   -0.659258   -0.410643
      2          6           0        0.271253    0.422212    0.531621
      3          1           0       -0.061895    0.238643    1.577116
      4          1           0        1.895368   -0.118430   -0.060016
      5          1           0       -0.128974    1.434229    0.300564
      6          8           0        2.870858   -0.340535   -0.319265
      7          1           0        2.720804   -1.041222   -0.967468
 ---------------------------------------------------------------------
                    Distance matrix (angstroms):
                    1          2          3          4          5
     1  Cl   0.000000
     2  C    1.965475   0.000000
     3  H    2.403897   1.112540   0.000000
     4  H    3.037044   1.811099   2.576545   0.000000
     5  H    2.403899   1.112540   1.750289   2.576573   0.000000
     6  O    3.957266   2.839672   3.540162   1.033499   3.540193
     7  H    3.852928   3.223229   3.982007   1.535043   3.982084
                    6          7
     6  O    0.000000
     7  H    0.966253   0.000000
 Stoichiometry    CH4ClO(1-)
 Framework group  C1[X(CH4ClO)]
 Deg. of freedom    15
 Full point group                 C1      NOp   1
 Largest Abelian subgroup         C1      NOp   1
 Largest concise Abelian subgroup C1      NOp   1
                         Standard orientation:                         
 ---------------------------------------------------------------------
 Center     Atomic      Atomic             Coordinates (Angstroms)
 Number     Number       Type             X           Y           Z
 ---------------------------------------------------------------------
      1         17           0       -1.399537   -0.365029   -0.000003
      2          6           0        0.008266    1.006533    0.000003
      3          1           0       -0.332204    1.603117    0.875168
      4          1           0        1.596018    0.135256   -0.000006
      5          1           0       -0.332236    1.603160   -0.875120
      6          8           0        2.555986   -0.247604   -0.000013
      7          1           0        2.363068   -1.194402    0.000082
 ---------------------------------------------------------------------
 Rotational constants (GHZ):     19.5995820      2.7657012      2.4601201
 Standard basis: Aug-CC-pVDZ (5D, 7F)
 There are   115 symmetry adapted cartesian basis functions of A   symmetry.
 There are   109 symmetry adapted basis functions of A   symmetry.
   109 basis functions,   211 primitive gaussians,   115 cartesian basis functions
    18 alpha electrons       18 beta electrons
       nuclear repulsion energy        88.0134232814 Hartrees.
 NAtoms=    7 NActive=    7 NUniq=    7 SFac= 1.00D+00 NAtFMM=   60 NAOKFM=F Big=F
 Integral buffers will be    131072 words long.
 Raffenetti 2 integral format.
 Two-electron integral symmetry is turned on.
 One-electron integrals computed using PRISM.
 NBasis=   109 RedAO= T EigKep=  6.99D-04  NBF=   109
 NBsUse=   109 1.00D-06 EigRej= -1.00D+00 NBFU=   109
 Initial guess from the checkpoint file:  "/localscratch/rjackson.18103347.0/Gau-112682.chk"
 B after Tr=    -0.000000    0.000000   -0.000000
         Rot=    0.999997    0.000000   -0.000000    0.002313 Ang=   0.27 deg.
 ExpMin= 2.97D-02 ExpMax= 1.28D+05 ExpMxC= 1.24D+03 IAcc=3 IRadAn=         5 AccDes= 0.00D+00
 Harris functional with IExCor=  402 and IRadAn=       5 diagonalized for initial guess.
 HarFok:  IExCor=  402 AccDes= 0.00D+00 IRadAn=         5 IDoV= 1 UseB2=F ITyADJ=14
 ICtDFT=  3500011 ScaDFX=  1.000000  1.000000  1.000000  1.000000
 FoFCou: FMM=F IPFlag=           0 FMFlag=      100000 FMFlg1=           0
         NFxFlg=           0 DoJE=T BraDBF=F KetDBF=T FulRan=T
         wScrn=  0.000000 ICntrl=     500 IOpCl=  0 I1Cent=   200000004 NGrid=           0
         NMat0=    1 NMatS0=      1 NMatT0=    0 NMatD0=    1 NMtDS0=    0 NMtDT0=    0
 Petite list used in FoFCou.
 Keep R1 ints in memory in canonical form, NReq=19024677.
 Requested convergence on RMS density matrix=1.00D-08 within 256 cycles.
 Requested convergence on MAX density matrix=1.00D-06.
 Requested convergence on             energy=1.00D-06.
 No special actions if energy rises.
 SCF Done:  E(RB3LYP) =  -575.973991463     A.U. after   12 cycles
            NFock= 12  Conv=0.47D-08     -V/T= 2.0031
 Calling FoFJK, ICntrl=      2127 FMM=F ISym2X=0 I1Cent= 0 IOpClX= 0 NMat=1 NMatS=1 NMatT=0.
 ***** Axes restored to original set *****
 -------------------------------------------------------------------
 Center     Atomic                   Forces (Hartrees/Bohr)
 Number     Number              X              Y              Z
 -------------------------------------------------------------------
      1       17          -0.000101109    0.000200474    0.000193035
      2        6          -0.002795077   -0.001756962   -0.001497810
      3        1           0.001669933   -0.000602506   -0.000720073
      4        1          -0.000648759    0.008798938    0.008273099
      5        1           0.001673960   -0.000670353   -0.000647943
      6        8          -0.003653290   -0.005821222   -0.005258652
      7        1           0.003854342   -0.000148370   -0.000341656
 -------------------------------------------------------------------
 Cartesian Forces:  Max     0.008798938 RMS     0.003496527

 GradGradGradGradGradGradGradGradGradGradGradGradGradGradGradGradGradGrad
 Berny optimization.
 Using GEDIIS/GDIIS optimizer.
 FormGI is forming the generalized inverse of G from B-inverse, IUseBI=4.
 Internal  Forces:  Max     0.007888995 RMS     0.002804493
 Search for a local minimum.
 Step number   2 out of a maximum of   28
 All quantities printed in internal units (Hartrees-Bohrs-Radians)
 Mixed Optimization -- RFO/linear search
 Update second derivatives using D2CorX and points    2    1
 DE=  3.17D-04 DEPred=-7.91D-04 R=-4.00D-01
 Trust test=-4.00D-01 RLast= 3.12D-01 DXMaxT set to 1.50D-01
 The second derivative matrix:
                          R1        R2        R3        R4        R5
           R1           0.16247
           R2          -0.00247   0.30951
           R3          -0.00145  -0.00440   0.05751
           R4          -0.00247  -0.00829  -0.00440   0.30951
           R5           0.00229   0.00708   0.00232   0.00708   0.42219
           R6          -0.00245  -0.00847  -0.00510  -0.00847   0.00801
           A1           0.00105   0.00340   0.00149   0.00340  -0.00249
           A2          -0.00043  -0.00217  -0.00285  -0.00217   0.00405
           A3           0.00105   0.00340   0.00149   0.00340  -0.00249
           A4          -0.00133  -0.00404  -0.00114  -0.00404   0.00215
           A5           0.00183   0.00601   0.00285   0.00601  -0.00469
           A6          -0.00133  -0.00404  -0.00114  -0.00404   0.00215
           A7           0.00625   0.01962   0.00717   0.01962  -0.01254
           A8          -0.00146  -0.00241   0.00462  -0.00241  -0.00560
           A9           0.00000   0.00000   0.00000   0.00000  -0.00000
           D1           0.00000   0.00000   0.00000   0.00000  -0.00000
           D2           0.00010   0.00034   0.00019   0.00034  -0.00031
           D3          -0.00010  -0.00034  -0.00019  -0.00034   0.00031
                          R6        A1        A2        A3        A4
           R6           0.52591
           A1           0.00364   0.15870
           A2          -0.00129   0.00137   0.16203
           A3           0.00364  -0.00130   0.00137   0.15870
           A4          -0.00467   0.00137  -0.00259   0.00137   0.15894
           A5           0.00632  -0.00236   0.00209  -0.00236   0.00262
           A6          -0.00467   0.00137  -0.00259   0.00137  -0.00106
           A7           0.02180  -0.00711   0.01011  -0.00711   0.00662
           A8          -0.00568  -0.00069  -0.00968  -0.00069   0.00417
           A9           0.00000  -0.00000  -0.00000  -0.00000   0.00000
           D1           0.00000  -0.00000   0.00000  -0.00000   0.00000
           D2           0.00034  -0.00014   0.00007  -0.00014   0.00018
           D3          -0.00034   0.00014  -0.00007   0.00014  -0.00018
                          A5        A6        A7        A8        A9
           A5           0.15575
           A6           0.00262   0.15894
           A7          -0.01323   0.00662   0.12310
           A8          -0.00004   0.00417  -0.01160   0.03699
           A9          -0.00000   0.00000  -0.00000   0.00000   0.00619
           D1          -0.00000   0.00000  -0.00000   0.00000  -0.00000
           D2          -0.00025   0.00018  -0.00084   0.00017  -0.00000
           D3           0.00025  -0.00018   0.00084  -0.00017   0.00000
                          D1        D2        D3
           D1           0.00230
           D2          -0.00000   0.00229
           D3           0.00000   0.00001   0.00229
 ITU= -1  0
 Use linear search instead of GDIIS.
 Energy rises -- skip Quadratic/GDIIS search.
 Quartic linear search produced a step of -0.59499.
 Iteration  1 RMS(Cart)=  0.08597958 RMS(Int)=  0.00609651
 Iteration  2 RMS(Cart)=  0.00800074 RMS(Int)=  0.00020241
 Iteration  3 RMS(Cart)=  0.00002080 RMS(Int)=  0.00020209
 Iteration  4 RMS(Cart)=  0.00000000 RMS(Int)=  0.00020209
 Variable       Old X    -DE/DX   Delta X   Delta X   Delta X     New X
                                 (Linear)    (Quad)   (Total)
    R1        3.71421  -0.00013   0.00371   0.00000   0.00371   3.71792
    R2        2.10240  -0.00108   0.00600   0.00000   0.00600   2.10839
    R3        3.42248  -0.00212   0.01197   0.00000   0.01197   3.43445
    R4        2.10240  -0.00108   0.00600   0.00000   0.00600   2.10839
    R5        1.95303   0.00288  -0.00288   0.00000  -0.00287   1.95016
    R6        1.82595  -0.00026   0.00396   0.00000   0.00396   1.82991
    A1        1.72643   0.00084  -0.00433   0.00000  -0.00460   1.72183
    A2        1.86735   0.00200   0.00607   0.00000   0.00574   1.87309
    A3        1.72643   0.00084  -0.00433   0.00000  -0.00460   1.72183
    A4        2.12500  -0.00190   0.00406   0.00000   0.00421   2.12921
    A5        1.81062   0.00134  -0.00804   0.00000  -0.00771   1.80292
    A6        2.12504  -0.00190   0.00406   0.00000   0.00421   2.12925
    A7        1.74928   0.00705  -0.02253   0.00000  -0.02253   1.72675
    A8        3.26398  -0.00789  -0.17613   0.00000  -0.17629   3.08769
    A9        3.14161  -0.00000  -0.00001   0.00000  -0.00001   3.14160
    D1       -0.00011   0.00000  -0.00001   0.00000  -0.00001  -0.00012
    D2        1.98502  -0.00007  -0.03561   0.00000  -0.03523   1.94978
    D3       -1.98526   0.00007   0.03558   0.00000   0.03520  -1.95006
         Item               Value     Threshold  Converged?
 Maximum Force            0.007889     0.000015     NO 
 RMS     Force            0.002804     0.000010     NO 
 Maximum Displacement     0.256017     0.000060     NO 
 RMS     Displacement     0.088893     0.000040     NO 
 Predicted change in Energy=-2.742055D-04
 GradGradGradGradGradGradGradGradGradGradGradGradGradGradGradGradGradGrad

                          Input orientation:                          
 ---------------------------------------------------------------------
 Center     Atomic      Atomic             Coordinates (Angstroms)
 Number     Number       Type             X           Y           Z
 ---------------------------------------------------------------------
      1         17           0       -0.994540   -0.691021   -0.444486
      2          6           0        0.289363    0.430129    0.538082
      3          1           0       -0.075788    0.234896    1.574116
      4          1           0        1.955438   -0.054134   -0.002974
      5          1           0       -0.142866    1.430261    0.297808
      6          8           0        2.877986   -0.366531   -0.343991
      7          1           0        2.585326   -1.047961   -0.966646
 ---------------------------------------------------------------------
                    Distance matrix (angstroms):
                    1          2          3          4          5
     1  Cl   0.000000
     2  C    1.967441   0.000000
     3  H    2.403368   1.115714   0.000000
     4  H    3.050070   1.817432   2.587785   0.000000
     5  H    2.403369   1.115714   1.749960   2.587813   0.000000
     6  O    3.887396   2.848454   3.572902   1.031978   3.572942
     7  H    3.635312   3.117756   3.896501   1.520893   3.896596
                    6          7
     6  O    0.000000
     7  H    0.968347   0.000000
 Stoichiometry    CH4ClO(1-)
 Framework group  C1[X(CH4ClO)]
 Deg. of freedom    15
 Full point group                 C1      NOp   1
 Largest Abelian subgroup         C1      NOp   1
 Largest concise Abelian subgroup C1      NOp   1
                         Standard orientation:                         
 ---------------------------------------------------------------------
 Center     Atomic      Atomic             Coordinates (Angstroms)
 Number     Number       Type             X           Y           Z
 ---------------------------------------------------------------------
      1         17           0       -1.363775   -0.380256   -0.000003
      2          6           0       -0.007077    1.044592    0.000003
      3          1           0       -0.377681    1.629259    0.875009
      4          1           0        1.622559    0.240015   -0.000017
      5          1           0       -0.377723    1.629309   -0.874951
      6          8           0        2.521943   -0.266037   -0.000013
      7          1           0        2.183941   -1.173479    0.000098
 ---------------------------------------------------------------------
 Rotational constants (GHZ):     18.4292262      2.8736087      2.5243016
 Standard basis: Aug-CC-pVDZ (5D, 7F)
 There are   115 symmetry adapted cartesian basis functions of A   symmetry.
 There are   109 symmetry adapted basis functions of A   symmetry.
   109 basis functions,   211 primitive gaussians,   115 cartesian basis functions
    18 alpha electrons       18 beta electrons
       nuclear repulsion energy        88.4069807792 Hartrees.
 NAtoms=    7 NActive=    7 NUniq=    7 SFac= 1.00D+00 NAtFMM=   60 NAOKFM=F Big=F
 Integral buffers will be    131072 words long.
 Raffenetti 2 integral format.
 Two-electron integral symmetry is turned on.
 One-electron integrals computed using PRISM.
 NBasis=   109 RedAO= T EigKep=  6.98D-04  NBF=   109
 NBsUse=   109 1.00D-06 EigRej= -1.00D+00 NBFU=   109
 Lowest energy guess from the checkpoint file:  "/localscratch/rjackson.18103347.0/Gau-112682.chk"
 B after Tr=    -0.000000   -0.000000    0.000000
         Rot=    1.000000   -0.000000   -0.000000    0.000611 Ang=  -0.07 deg.
 B after Tr=    -0.000000   -0.000000    0.000000
         Rot=    0.999999   -0.000000    0.000000   -0.001678 Ang=  -0.19 deg.
 Keep R1 ints in memory in canonical form, NReq=19024677.
 Requested convergence on RMS density matrix=1.00D-08 within 256 cycles.
 Requested convergence on MAX density matrix=1.00D-06.
 Requested convergence on             energy=1.00D-06.
 No special actions if energy rises.
 SCF Done:  E(RB3LYP) =  -575.974569979     A.U. after    9 cycles
            NFock=  9  Conv=0.78D-08     -V/T= 2.0031
 Calling FoFJK, ICntrl=      2127 FMM=F ISym2X=0 I1Cent= 0 IOpClX= 0 NMat=1 NMatS=1 NMatT=0.
 ***** Axes restored to original set *****
 -------------------------------------------------------------------
 Center     Atomic                   Forces (Hartrees/Bohr)
 Number     Number              X              Y              Z
 -------------------------------------------------------------------
      1       17           0.000868641    0.000231191    0.000170916
      2        6          -0.004095079    0.001105604    0.001251045
      3        1           0.002344108   -0.000357388   -0.002086896
      4        1          -0.001865272    0.004676002    0.004476224
      5        1           0.002435431   -0.001980599   -0.000354049
      6        8          -0.004102783   -0.004758625   -0.004239709
      7        1           0.004414954    0.001083814    0.000782468
 -------------------------------------------------------------------
 Cartesian Forces:  Max     0.004758625 RMS     0.002798499

 GradGradGradGradGradGradGradGradGradGradGradGradGradGradGradGradGradGrad
 Berny optimization.
 Using GEDIIS/GDIIS optimizer.
 FormGI is forming the generalized inverse of G from B-inverse, IUseBI=4.
 Internal  Forces:  Max     0.006972416 RMS     0.002289043
 Search for a local minimum.
 Step number   3 out of a maximum of   28
 All quantities printed in internal units (Hartrees-Bohrs-Radians)
 Mixed Optimization -- RFO/linear search
 Update second derivatives using D2CorX and points    2    1    3
 The second derivative matrix:
                          R1        R2        R3        R4        R5
           R1           0.16242
           R2          -0.00256   0.30940
           R3          -0.00167  -0.00501   0.05809
           R4          -0.00256  -0.00841  -0.00501   0.30940
           R5           0.00227   0.00705   0.00220   0.00705   0.42218
           R6          -0.00260  -0.00870  -0.00594  -0.00870   0.00795
           A1           0.00105   0.00339   0.00155   0.00339  -0.00249
           A2          -0.00059  -0.00239  -0.00381  -0.00239   0.00399
           A3           0.00105   0.00339   0.00155   0.00339  -0.00249
           A4          -0.00130  -0.00400  -0.00096  -0.00400   0.00216
           A5           0.00189   0.00610   0.00319   0.00610  -0.00467
           A6          -0.00130  -0.00400  -0.00096  -0.00400   0.00216
           A7           0.00624   0.01962   0.00713   0.01962  -0.01254
           A8          -0.00119  -0.00217   0.00724  -0.00217  -0.00550
           A9          -0.00000   0.00000   0.00000   0.00000  -0.00000
           D1           0.00000   0.00000   0.00000   0.00000  -0.00000
           D2           0.00011   0.00037   0.00021   0.00037  -0.00030
           D3          -0.00011  -0.00037  -0.00021  -0.00037   0.00030
                          R6        A1        A2        A3        A4
           R6           0.52547
           A1           0.00364   0.15870
           A2          -0.00172   0.00137   0.16162
           A3           0.00364  -0.00130   0.00137   0.15870
           A4          -0.00459   0.00137  -0.00252   0.00137   0.15893
           A5           0.00650  -0.00236   0.00226  -0.00237   0.00259
           A6          -0.00460   0.00137  -0.00252   0.00137  -0.00108
           A7           0.02179  -0.00711   0.01010  -0.00711   0.00662
           A8          -0.00501  -0.00066  -0.00913  -0.00066   0.00408
           A9          -0.00000  -0.00000  -0.00000  -0.00000   0.00000
           D1           0.00000  -0.00000   0.00000  -0.00000   0.00000
           D2           0.00038  -0.00015   0.00011  -0.00015   0.00017
           D3          -0.00038   0.00014  -0.00011   0.00014  -0.00017
                          A5        A6        A7        A8        A9
           A5           0.15568
           A6           0.00259   0.15892
           A7          -0.01322   0.00663   0.12310
           A8          -0.00031   0.00408  -0.01159   0.03683
           A9          -0.00000   0.00000  -0.00000   0.00000   0.00619
           D1          -0.00000   0.00000  -0.00000   0.00000   0.00000
           D2          -0.00027   0.00017  -0.00084   0.00007  -0.00000
           D3           0.00027  -0.00017   0.00084  -0.00007   0.00000
                          D1        D2        D3
           D1           0.00230
           D2          -0.00000   0.00228
           D3           0.00000   0.00002   0.00228
 ITU=  0 -1  0
 Use linear search instead of GDIIS.
     Eigenvalues ---    0.00230   0.00615   0.02752   0.05646   0.07750
     Eigenvalues ---    0.09627   0.10614   0.16000   0.16000   0.16261
     Eigenvalues ---    0.16470   0.30543   0.31780   0.42322   0.52794
 RFO step:  Lambda=-8.89494697D-04 EMin= 2.29999998D-03
 Quartic linear search produced a step of -0.00068.
 Iteration  1 RMS(Cart)=  0.02637199 RMS(Int)=  0.00086046
 Iteration  2 RMS(Cart)=  0.00072003 RMS(Int)=  0.00003288
 Iteration  3 RMS(Cart)=  0.00000033 RMS(Int)=  0.00003288
 Variable       Old X    -DE/DX   Delta X   Delta X   Delta X     New X
                                 (Linear)    (Quad)   (Total)
    R1        3.71792  -0.00078   0.00000  -0.00966  -0.00966   3.70826
    R2        2.10839  -0.00264   0.00000  -0.01620  -0.01620   2.09220
    R3        3.43445  -0.00199   0.00001  -0.04898  -0.04897   3.38548
    R4        2.10839  -0.00264   0.00000  -0.01620  -0.01620   2.09220
    R5        1.95016   0.00253  -0.00000   0.00972   0.00972   1.95988
    R6        1.82991  -0.00260   0.00000  -0.01008  -0.01008   1.81983
    A1        1.72183   0.00115  -0.00000   0.01338   0.01332   1.73514
    A2        1.87309  -0.00036   0.00000  -0.00954  -0.00960   1.86349
    A3        1.72183   0.00115  -0.00000   0.01338   0.01332   1.73515
    A4        2.12921  -0.00151   0.00000  -0.01502  -0.01507   2.11414
    A5        1.80292   0.00205  -0.00000   0.02261   0.02257   1.82549
    A6        2.12925  -0.00151   0.00000  -0.01502  -0.01508   2.11418
    A7        1.72675   0.00697  -0.00001   0.07293   0.07292   1.79968
    A8        3.08769  -0.00157  -0.00008  -0.00866  -0.00875   3.07893
    A9        3.14160   0.00000  -0.00000   0.00001   0.00001   3.14162
    D1       -0.00012   0.00000  -0.00000   0.00004   0.00004  -0.00008
    D2        1.94978   0.00002  -0.00002  -0.00050  -0.00049   1.94929
    D3       -1.95006  -0.00002   0.00002   0.00058   0.00058  -1.94948
         Item               Value     Threshold  Converged?
 Maximum Force            0.006972     0.000015     NO 
 RMS     Force            0.002289     0.000010     NO 
 Maximum Displacement     0.057538     0.000060     NO 
 RMS     Displacement     0.026246     0.000040     NO 
 Predicted change in Energy=-4.492163D-04
 GradGradGradGradGradGradGradGradGradGradGradGradGradGradGradGradGradGrad

                          Input orientation:                          
 ---------------------------------------------------------------------
 Center     Atomic      Atomic             Coordinates (Angstroms)
 Number     Number       Type             X           Y           Z
 ---------------------------------------------------------------------
      1         17           0       -0.984596   -0.692270   -0.446170
      2          6           0        0.284107    0.433072    0.541115
      3          1           0       -0.062305    0.233667    1.573589
      4          1           0        1.925255   -0.046288    0.005969
      5          1           0       -0.129452    1.430358    0.295851
      6          8           0        2.847538   -0.367396   -0.343179
      7          1           0        2.614374   -1.055505   -0.975266
 ---------------------------------------------------------------------
                    Distance matrix (angstroms):
                    1          2          3          4          5
     1  Cl   0.000000
     2  C    1.962328   0.000000
     3  H    2.405703   1.107143   0.000000
     4  H    3.014789   1.791517   2.546803   0.000000
     5  H    2.405704   1.107143   1.751911   2.546828   0.000000
     6  O    3.847259   2.827349   3.535883   1.037122   3.535922
     7  H    3.655744   3.153635   3.914490   1.567235   3.914566
                    6          7
     6  O    0.000000
     7  H    0.963012   0.000000
 Stoichiometry    CH4ClO(1-)
 Framework group  C1[X(CH4ClO)]
 Deg. of freedom    15
 Full point group                 C1      NOp   1
 Largest Abelian subgroup         C1      NOp   1
 Largest concise Abelian subgroup C1      NOp   1
                         Standard orientation:                         
 ---------------------------------------------------------------------
 Center     Atomic      Atomic             Coordinates (Angstroms)
 Number     Number       Type             X           Y           Z
 ---------------------------------------------------------------------
      1         17           0       -1.351911   -0.381559   -0.000002
      2          6           0       -0.009030    1.049316    0.000001
      3          1           0       -0.360779    1.627849    0.875980
      4          1           0        1.595473    0.252382   -0.000018
      5          1           0       -0.360819    1.627893   -0.875931
      6          8           0        2.493619   -0.266226   -0.000009
      7          1           0        2.213842   -1.187702    0.000063
 ---------------------------------------------------------------------
 Rotational constants (GHZ):     18.3040982      2.9298642      2.5652553
 Standard basis: Aug-CC-pVDZ (5D, 7F)
 There are   115 symmetry adapted cartesian basis functions of A   symmetry.
 There are   109 symmetry adapted basis functions of A   symmetry.
   109 basis functions,   211 primitive gaussians,   115 cartesian basis functions
    18 alpha electrons       18 beta electrons
       nuclear repulsion energy        88.8327200510 Hartrees.
 NAtoms=    7 NActive=    7 NUniq=    7 SFac= 1.00D+00 NAtFMM=   60 NAOKFM=F Big=F
 Integral buffers will be    131072 words long.
 Raffenetti 2 integral format.
 Two-electron integral symmetry is turned on.
 One-electron integrals computed using PRISM.
 NBasis=   109 RedAO= T EigKep=  6.90D-04  NBF=   109
 NBsUse=   109 1.00D-06 EigRej= -1.00D+00 NBFU=   109
 Initial guess from the checkpoint file:  "/localscratch/rjackson.18103347.0/Gau-112682.chk"
 B after Tr=     0.000000   -0.000000    0.000000
         Rot=    1.000000    0.000000   -0.000000   -0.000149 Ang=   0.02 deg.
 ExpMin= 2.97D-02 ExpMax= 1.28D+05 ExpMxC= 1.24D+03 IAcc=3 IRadAn=         5 AccDes= 0.00D+00
 Harris functional with IExCor=  402 and IRadAn=       5 diagonalized for initial guess.
 HarFok:  IExCor=  402 AccDes= 0.00D+00 IRadAn=         5 IDoV= 1 UseB2=F ITyADJ=14
 ICtDFT=  3500011 ScaDFX=  1.000000  1.000000  1.000000  1.000000
 FoFCou: FMM=F IPFlag=           0 FMFlag=      100000 FMFlg1=           0
         NFxFlg=           0 DoJE=T BraDBF=F KetDBF=T FulRan=T
         wScrn=  0.000000 ICntrl=     500 IOpCl=  0 I1Cent=   200000004 NGrid=           0
         NMat0=    1 NMatS0=      1 NMatT0=    0 NMatD0=    1 NMtDS0=    0 NMtDT0=    0
 Petite list used in FoFCou.
 Keep R1 ints in memory in canonical form, NReq=19024677.
 Requested convergence on RMS density matrix=1.00D-08 within 256 cycles.
 Requested convergence on MAX density matrix=1.00D-06.
 Requested convergence on             energy=1.00D-06.
 No special actions if energy rises.
 SCF Done:  E(RB3LYP) =  -575.974979519     A.U. after   10 cycles
            NFock= 10  Conv=0.41D-08     -V/T= 2.0031
 Calling FoFJK, ICntrl=      2127 FMM=F ISym2X=0 I1Cent= 0 IOpClX= 0 NMat=1 NMatS=1 NMatT=0.
 ***** Axes restored to original set *****
 -------------------------------------------------------------------
 Center     Atomic                   Forces (Hartrees/Bohr)
 Number     Number              X              Y              Z
 -------------------------------------------------------------------
      1       17           0.000870092    0.000869107    0.000768203
      2        6           0.001047811   -0.002157665   -0.002075447
      3        1          -0.000221306   -0.000739523    0.001611145
      4        1          -0.003182535    0.000371031    0.000515029
      5        1          -0.000349517    0.001544494   -0.000827614
      6        8           0.002933938    0.000612331    0.000419053
      7        1          -0.001098483   -0.000499775   -0.000410369
 -------------------------------------------------------------------
 Cartesian Forces:  Max     0.003182535 RMS     0.001377757

 GradGradGradGradGradGradGradGradGradGradGradGradGradGradGradGradGradGrad
 Berny optimization.
 Using GEDIIS/GDIIS optimizer.
 FormGI is forming the generalized inverse of G from B-inverse, IUseBI=4.
 Internal  Forces:  Max     0.001705140 RMS     0.000980015
 Search for a local minimum.
 Step number   4 out of a maximum of   28
 All quantities printed in internal units (Hartrees-Bohrs-Radians)
 Mixed Optimization -- En-DIIS/RFO-DIIS
 Update second derivatives using D2CorX and points    2    1    3    4
 DE= -4.10D-04 DEPred=-4.49D-04 R= 9.12D-01
 TightC=F SS=  1.41D+00  RLast= 1.00D-01 DXNew= 2.5227D-01 3.0027D-01
 Trust test= 9.12D-01 RLast= 1.00D-01 DXMaxT set to 2.52D-01
 The second derivative matrix:
                          R1        R2        R3        R4        R5
           R1           0.16234
           R2          -0.00785   0.32114
           R3          -0.00349  -0.00789   0.05339
           R4          -0.00785   0.00333  -0.00789   0.32114
           R5           0.00517   0.01019   0.00748   0.01019   0.41586
           R6          -0.00712  -0.00072  -0.00892  -0.00072   0.01185
           A1           0.00288   0.00172   0.00342   0.00172  -0.00470
           A2          -0.00107  -0.00041  -0.00312  -0.00041   0.00413
           A3           0.00288   0.00172   0.00342   0.00172  -0.00470
           A4          -0.00345  -0.00362  -0.00397  -0.00362   0.00549
           A5           0.00449   0.00574   0.00656   0.00574  -0.00893
           A6          -0.00346  -0.00362  -0.00397  -0.00362   0.00549
           A7           0.01856   0.00094   0.01804   0.00094  -0.02370
           A8          -0.00440   0.00212   0.00183   0.00212  -0.00276
           A9           0.00000  -0.00000   0.00000  -0.00000   0.00000
           D1           0.00000  -0.00000   0.00000  -0.00000  -0.00000
           D2           0.00006  -0.00029  -0.00009  -0.00029   0.00008
           D3          -0.00006   0.00029   0.00009   0.00029  -0.00008
                          R6        A1        A2        A3        A4
           R6           0.53062
           A1           0.00295   0.15850
           A2          -0.00008   0.00101   0.16218
           A3           0.00295  -0.00150   0.00101   0.15850
           A4          -0.00517   0.00211  -0.00233   0.00211   0.15750
           A5           0.00719  -0.00334   0.00186  -0.00334   0.00448
           A6          -0.00517   0.00211  -0.00233   0.00211  -0.00251
           A7           0.01083  -0.00595   0.00685  -0.00595   0.00874
           A8          -0.00293  -0.00095  -0.00867  -0.00095   0.00355
           A9          -0.00000   0.00000  -0.00000   0.00000  -0.00000
           D1           0.00000  -0.00000   0.00000  -0.00000   0.00000
           D2          -0.00021   0.00009   0.00001   0.00009  -0.00010
           D3           0.00021  -0.00009  -0.00001  -0.00009   0.00010
                          A5        A6        A7        A8        A9
           A5           0.15331
           A6           0.00448   0.15749
           A7          -0.01636   0.00875   0.14768
           A8           0.00074   0.00355  -0.01718   0.03758
           A9           0.00000  -0.00000   0.00000   0.00000   0.00619
           D1          -0.00000   0.00000  -0.00000  -0.00000   0.00000
           D2           0.00008  -0.00010   0.00064  -0.00020   0.00000
           D3          -0.00008   0.00010  -0.00065   0.00020  -0.00000
                          D1        D2        D3
           D1           0.00230
           D2           0.00000   0.00228
           D3          -0.00000   0.00002   0.00228
 ITU=  1  0 -1  0
 Use linear search instead of GDIIS.
     Eigenvalues ---    0.00230   0.00615   0.02815   0.04636   0.07818
     Eigenvalues ---    0.09761   0.11961   0.16000   0.16132   0.16255
     Eigenvalues ---    0.17826   0.31780   0.32451   0.41959   0.53248
 RFO step:  Lambda=-8.81596006D-05 EMin= 2.29999997D-03
 Quartic linear search produced a step of -0.06285.
 Iteration  1 RMS(Cart)=  0.00917956 RMS(Int)=  0.00000670
 Iteration  2 RMS(Cart)=  0.00000710 RMS(Int)=  0.00000210
 Iteration  3 RMS(Cart)=  0.00000000 RMS(Int)=  0.00000210
 Variable       Old X    -DE/DX   Delta X   Delta X   Delta X     New X
                                 (Linear)    (Quad)   (Total)
    R1        3.70826  -0.00145   0.00061  -0.00947  -0.00886   3.69940
    R2        2.09220   0.00170   0.00102   0.00305   0.00407   2.09626
    R3        3.38548  -0.00152   0.00308  -0.03069  -0.02762   3.35786
    R4        2.09220   0.00171   0.00102   0.00305   0.00407   2.09626
    R5        1.95988   0.00159  -0.00061   0.00476   0.00415   1.96403
    R6        1.81983   0.00089   0.00063   0.00035   0.00099   1.82082
    A1        1.73514  -0.00004  -0.00084   0.00113   0.00029   1.73544
    A2        1.86349   0.00027   0.00060   0.00030   0.00090   1.86439
    A3        1.73515  -0.00004  -0.00084   0.00113   0.00029   1.73544
    A4        2.11414  -0.00041   0.00095  -0.00424  -0.00329   2.11085
    A5        1.82549   0.00074  -0.00142   0.00743   0.00601   1.83150
    A6        2.11418  -0.00041   0.00095  -0.00425  -0.00330   2.11088
    A7        1.79968  -0.00166  -0.00458  -0.00039  -0.00497   1.79470
    A8        3.07893   0.00016   0.00055   0.00192   0.00247   3.08141
    A9        3.14162  -0.00000  -0.00000  -0.00004  -0.00004   3.14158
    D1       -0.00008  -0.00000  -0.00000   0.00002   0.00002  -0.00006
    D2        1.94929  -0.00005   0.00003  -0.00029  -0.00026   1.94903
    D3       -1.94948   0.00005  -0.00004   0.00034   0.00031  -1.94918
         Item               Value     Threshold  Converged?
 Maximum Force            0.001705     0.000015     NO 
 RMS     Force            0.000980     0.000010     NO 
 Maximum Displacement     0.017031     0.000060     NO 
 RMS     Displacement     0.009185     0.000040     NO 
 Predicted change in Energy=-4.627717D-05
 GradGradGradGradGradGradGradGradGradGradGradGradGradGradGradGradGradGrad

                          Input orientation:                          
 ---------------------------------------------------------------------
 Center     Atomic      Atomic             Coordinates (Angstroms)
 Number     Number       Type             X           Y           Z
 ---------------------------------------------------------------------
      1         17           0       -0.978283   -0.691679   -0.445943
      2          6           0        0.288249    0.430462    0.538458
      3          1           0       -0.056076    0.228362    1.573413
      4          1           0        1.916242   -0.044601    0.008045
      5          1           0       -0.123497    1.430150    0.290213
      6          8           0        2.841803   -0.364451   -0.340120
      7          1           0        2.606482   -1.052604   -0.972156
 ---------------------------------------------------------------------
                    Distance matrix (angstroms):
                    1          2          3          4          5
     1  Cl   0.000000
     2  C    1.957639   0.000000
     3  H    2.403068   1.109295   0.000000
     4  H    3.000515   1.776903   2.532770   0.000000
     5  H    2.403069   1.109295   1.759387   2.532794   0.000000
     6  O    3.835536   2.815035   3.522887   1.039320   3.522913
     7  H    3.641114   3.139370   3.900001   1.566300   3.900055
                    6          7
     6  O    0.000000
     7  H    0.963535   0.000000
 Stoichiometry    CH4ClO(1-)
 Framework group  C1[X(CH4ClO)]
 Deg. of freedom    15
 Full point group                 C1      NOp   1
 Largest Abelian subgroup         C1      NOp   1
 Largest concise Abelian subgroup C1      NOp   1
                         Standard orientation:                         
 ---------------------------------------------------------------------
 Center     Atomic      Atomic             Coordinates (Angstroms)
 Number     Number       Type             X           Y           Z
 ---------------------------------------------------------------------
      1         17           0       -1.348588   -0.379428   -0.000001
      2          6           0       -0.005630    1.044936    0.000001
      3          1           0       -0.354452    1.623704    0.879710
      4          1           0        1.584677    0.252277   -0.000002
      5          1           0       -0.354479    1.623734   -0.879677
      6          8           0        2.485284   -0.266464   -0.000008
      7          1           0        2.201762   -1.187341    0.000049
 ---------------------------------------------------------------------
 Rotational constants (GHZ):     18.4225071      2.9480162      2.5818467
 Standard basis: Aug-CC-pVDZ (5D, 7F)
 There are   115 symmetry adapted cartesian basis functions of A   symmetry.
 There are   109 symmetry adapted basis functions of A   symmetry.
   109 basis functions,   211 primitive gaussians,   115 cartesian basis functions
    18 alpha electrons       18 beta electrons
       nuclear repulsion energy        89.0354374094 Hartrees.
 NAtoms=    7 NActive=    7 NUniq=    7 SFac= 1.00D+00 NAtFMM=   60 NAOKFM=F Big=F
 Integral buffers will be    131072 words long.
 Raffenetti 2 integral format.
 Two-electron integral symmetry is turned on.
 One-electron integrals computed using PRISM.
 NBasis=   109 RedAO= T EigKep=  6.97D-04  NBF=   109
 NBsUse=   109 1.00D-06 EigRej= -1.00D+00 NBFU=   109
 Initial guess from the checkpoint file:  "/localscratch/rjackson.18103347.0/Gau-112682.chk"
 B after Tr=    -0.000000    0.000000   -0.000000
         Rot=    1.000000    0.000001    0.000000    0.000477 Ang=   0.05 deg.
 Keep R1 ints in memory in canonical form, NReq=19024677.
 Requested convergence on RMS density matrix=1.00D-08 within 256 cycles.
 Requested convergence on MAX density matrix=1.00D-06.
 Requested convergence on             energy=1.00D-06.
 No special actions if energy rises.
 SCF Done:  E(RB3LYP) =  -575.975052260     A.U. after   10 cycles
            NFock= 10  Conv=0.39D-08     -V/T= 2.0031
 Calling FoFJK, ICntrl=      2127 FMM=F ISym2X=0 I1Cent= 0 IOpClX= 0 NMat=1 NMatS=1 NMatT=0.
 ***** Axes restored to original set *****
 -------------------------------------------------------------------
 Center     Atomic                   Forces (Hartrees/Bohr)
 Number     Number              X              Y              Z
 -------------------------------------------------------------------
      1       17           0.000462006    0.000398635    0.000349070
      2        6           0.000168003   -0.001154407   -0.001089253
      3        1           0.000137696    0.000033305    0.000336120
      4        1          -0.003001396    0.000654301    0.000769426
      5        1           0.000120511    0.000344335    0.000003820
      6        8           0.002764884    0.000008705   -0.000136541
      7        1          -0.000651706   -0.000284875   -0.000232643
 -------------------------------------------------------------------
 Cartesian Forces:  Max     0.003001396 RMS     0.001013234

 GradGradGradGradGradGradGradGradGradGradGradGradGradGradGradGradGradGrad
 Berny optimization.
 Using GEDIIS/GDIIS optimizer.
 FormGI is forming the generalized inverse of G from B-inverse, IUseBI=4.
 Internal  Forces:  Max     0.002092415 RMS     0.000651003
 Search for a local minimum.
 Step number   5 out of a maximum of   28
 All quantities printed in internal units (Hartrees-Bohrs-Radians)
 Mixed Optimization -- En-DIIS/RFO-DIIS
 Swapping is turned off.
 Update second derivatives using D2CorX and points    2    1    3    4    5
 DE= -7.27D-05 DEPred=-4.63D-05 R= 1.57D+00
 TightC=F SS=  1.41D+00  RLast= 3.13D-02 DXNew= 4.2426D-01 9.4027D-02
 Trust test= 1.57D+00 RLast= 3.13D-02 DXMaxT set to 2.52D-01
 The second derivative matrix:
                          R1        R2        R3        R4        R5
           R1           0.15394
           R2          -0.00832   0.33822
           R3          -0.01776   0.00074   0.03429
           R4          -0.00832   0.02043   0.00074   0.33823
           R5           0.03994  -0.03309   0.04178  -0.03310   0.39105
           R6           0.00019  -0.00551   0.00070  -0.00551  -0.00482
           A1           0.00569  -0.00351   0.00519  -0.00351  -0.00206
           A2           0.00078  -0.00151  -0.00063  -0.00151  -0.00042
           A3           0.00569  -0.00351   0.00519  -0.00352  -0.00205
           A4          -0.00570  -0.00436  -0.00811  -0.00436   0.01641
           A5           0.00385   0.01567   0.01097   0.01568  -0.03261
           A6          -0.00571  -0.00435  -0.00812  -0.00435   0.01642
           A7           0.00381   0.01271  -0.00016   0.01271   0.00423
           A8          -0.00487   0.00377   0.00183   0.00377  -0.00489
           A9           0.00001  -0.00002   0.00001  -0.00002   0.00001
           D1           0.00000  -0.00000   0.00000  -0.00000  -0.00000
           D2           0.00552  -0.00984   0.00380  -0.00984   0.00341
           D3          -0.00552   0.00984  -0.00380   0.00984  -0.00342
                          R6        A1        A2        A3        A4
           R6           0.52577
           A1           0.00215   0.15926
           A2          -0.00136   0.00078   0.16184
           A3           0.00215  -0.00074   0.00078   0.15927
           A4          -0.00303   0.00305  -0.00180   0.00305   0.15692
           A5           0.00473  -0.00628   0.00131  -0.00628   0.00394
           A6          -0.00302   0.00305  -0.00179   0.00305  -0.00308
           A7           0.01988  -0.00499   0.00924  -0.00499   0.00433
           A8          -0.00286  -0.00134  -0.00861  -0.00134   0.00338
           A9          -0.00000   0.00000  -0.00000   0.00000   0.00000
           D1          -0.00000   0.00000  -0.00000   0.00000   0.00000
           D2          -0.00202   0.00137  -0.00053   0.00137   0.00172
           D3           0.00202  -0.00137   0.00053  -0.00137  -0.00172
                          A5        A6        A7        A8        A9
           A5           0.15908
           A6           0.00396   0.15691
           A7          -0.01012   0.00433   0.13106
           A8           0.00162   0.00338  -0.01697   0.03745
           A9          -0.00001   0.00000   0.00000  -0.00000   0.00619
           D1          -0.00000   0.00000   0.00000  -0.00000   0.00000
           D2          -0.00523   0.00172   0.00301  -0.00075   0.00001
           D3           0.00523  -0.00172  -0.00301   0.00075  -0.00001
                          D1        D2        D3
           D1           0.00230
           D2           0.00000   0.00438
           D3          -0.00000  -0.00208   0.00438
 ITU=  1  1  0 -1  0
     Eigenvalues ---    0.00230   0.00615   0.01791   0.03204   0.08057
     Eigenvalues ---    0.09775   0.11829   0.14853   0.16000   0.16159
     Eigenvalues ---    0.16538   0.31780   0.33020   0.44001   0.52727
 En-DIIS/RFO-DIIS IScMMF=        0 using points:     5    4
 RFO step:  Lambda=-2.74185137D-05.
 DidBck=F Rises=F RFO-DIIS coefs:    2.36611   -1.36611
 Iteration  1 RMS(Cart)=  0.02149113 RMS(Int)=  0.00008385
 Iteration  2 RMS(Cart)=  0.00008863 RMS(Int)=  0.00003798
 Iteration  3 RMS(Cart)=  0.00000001 RMS(Int)=  0.00003798
 Variable       Old X    -DE/DX   Delta X   Delta X   Delta X     New X
                                 (Linear)    (Quad)   (Total)
    R1        3.69940  -0.00070  -0.01211  -0.00671  -0.01881   3.68059
    R2        2.09626   0.00026   0.00556  -0.00324   0.00232   2.09858
    R3        3.35786  -0.00104  -0.03773  -0.03484  -0.07256   3.28530
    R4        2.09626   0.00026   0.00556  -0.00324   0.00232   2.09858
    R5        1.96403   0.00209   0.00567   0.01126   0.01693   1.98096
    R6        1.82082   0.00052   0.00135   0.00007   0.00142   1.82224
    A1        1.73544   0.00017   0.00040   0.00715   0.00757   1.74301
    A2        1.86439   0.00017   0.00124   0.00356   0.00482   1.86921
    A3        1.73544   0.00017   0.00040   0.00715   0.00757   1.74301
    A4        2.11085  -0.00022  -0.00450  -0.00534  -0.00990   2.10094
    A5        1.83150   0.00009   0.00821  -0.00128   0.00684   1.83835
    A6        2.11088  -0.00022  -0.00450  -0.00535  -0.00992   2.10097
    A7        1.79470  -0.00099  -0.00679   0.00085  -0.00594   1.78876
    A8        3.08141   0.00000   0.00338   0.00739   0.01080   3.09220
    A9        3.14158   0.00000  -0.00005   0.00020   0.00015   3.14173
    D1       -0.00006  -0.00000   0.00002   0.00005   0.00007   0.00001
    D2        1.94903   0.00023  -0.00036   0.01061   0.01019   1.95922
    D3       -1.94918  -0.00023   0.00042  -0.01056  -0.01008  -1.95925
         Item               Value     Threshold  Converged?
 Maximum Force            0.002092     0.000015     NO 
 RMS     Force            0.000651     0.000010     NO 
 Maximum Displacement     0.052298     0.000060     NO 
 RMS     Displacement     0.021549     0.000040     NO 
 Predicted change in Energy=-7.221599D-05
 GradGradGradGradGradGradGradGradGradGradGradGradGradGradGradGradGradGrad

                          Input orientation:                          
 ---------------------------------------------------------------------
 Center     Atomic      Atomic             Coordinates (Angstroms)
 Number     Number       Type             X           Y           Z
 ---------------------------------------------------------------------
      1         17           0       -0.970752   -0.691124   -0.445813
      2          6           0        0.295125    0.421863    0.530038
      3          1           0       -0.037715    0.221316    1.570355
      4          1           0        1.888568   -0.041833    0.012042
      5          1           0       -0.105408    1.427593    0.282370
      6          8           0        2.827611   -0.356343   -0.331721
      7          1           0        2.597494   -1.045834   -0.965361
 ---------------------------------------------------------------------
                    Distance matrix (angstroms):
                    1          2          3          4          5
     1  Cl   0.000000
     2  C    1.947684   0.000000
     3  H    2.401674   1.110523   0.000000
     4  H    2.967646   1.738504   2.491617   0.000000
     5  H    2.401673   1.110522   1.765954   2.491632   0.000000
     6  O    3.814794   2.785986   3.487360   1.048280   3.487425
     7  H    3.623277   3.113079   3.870382   1.570322   3.870447
                    6          7
     6  O    0.000000
     7  H    0.964288   0.000000
 Stoichiometry    CH4ClO(1-)
 Framework group  C1[X(CH4ClO)]
 Deg. of freedom    15
 Full point group                 C1      NOp   1
 Largest Abelian subgroup         C1      NOp   1
 Largest concise Abelian subgroup C1      NOp   1
                         Standard orientation:                         
 ---------------------------------------------------------------------
 Center     Atomic      Atomic             Coordinates (Angstroms)
 Number     Number       Type             X           Y           Z
 ---------------------------------------------------------------------
      1         17           0       -1.344578   -0.373257    0.000000
      2          6           0        0.004231    1.031801   -0.000003
      3          1           0       -0.330018    1.616470    0.883003
      4          1           0        1.556926    0.249797   -0.000058
      5          1           0       -0.330079    1.616523   -0.882951
      6          8           0        2.468747   -0.267382    0.000003
      7          1           0        2.185636   -1.189174   -0.000002
 ---------------------------------------------------------------------
 Rotational constants (GHZ):     18.7703752      2.9805895      2.6139659
 Standard basis: Aug-CC-pVDZ (5D, 7F)
 There are   115 symmetry adapted cartesian basis functions of A   symmetry.
 There are   109 symmetry adapted basis functions of A   symmetry.
   109 basis functions,   211 primitive gaussians,   115 cartesian basis functions
    18 alpha electrons       18 beta electrons
       nuclear repulsion energy        89.4570914998 Hartrees.
 NAtoms=    7 NActive=    7 NUniq=    7 SFac= 1.00D+00 NAtFMM=   60 NAOKFM=F Big=F
 Integral buffers will be    131072 words long.
 Raffenetti 2 integral format.
 Two-electron integral symmetry is turned on.
 One-electron integrals computed using PRISM.
 NBasis=   109 RedAO= T EigKep=  7.03D-04  NBF=   109
 NBsUse=   109 1.00D-06 EigRej= -1.00D+00 NBFU=   109
 Initial guess from the checkpoint file:  "/localscratch/rjackson.18103347.0/Gau-112682.chk"
 B after Tr=     0.000000    0.000000   -0.000000
         Rot=    0.999999   -0.000001   -0.000000    0.001568 Ang=  -0.18 deg.
 ExpMin= 2.97D-02 ExpMax= 1.28D+05 ExpMxC= 1.24D+03 IAcc=3 IRadAn=         5 AccDes= 0.00D+00
 Harris functional with IExCor=  402 and IRadAn=       5 diagonalized for initial guess.
 HarFok:  IExCor=  402 AccDes= 0.00D+00 IRadAn=         5 IDoV= 1 UseB2=F ITyADJ=14
 ICtDFT=  3500011 ScaDFX=  1.000000  1.000000  1.000000  1.000000
 FoFCou: FMM=F IPFlag=           0 FMFlag=      100000 FMFlg1=           0
         NFxFlg=           0 DoJE=T BraDBF=F KetDBF=T FulRan=T
         wScrn=  0.000000 ICntrl=     500 IOpCl=  0 I1Cent=   200000004 NGrid=           0
         NMat0=    1 NMatS0=      1 NMatT0=    0 NMatD0=    1 NMtDS0=    0 NMtDT0=    0
 Petite list used in FoFCou.
 Keep R1 ints in memory in canonical form, NReq=19024677.
 Requested convergence on RMS density matrix=1.00D-08 within 256 cycles.
 Requested convergence on MAX density matrix=1.00D-06.
 Requested convergence on             energy=1.00D-06.
 No special actions if energy rises.
 SCF Done:  E(RB3LYP) =  -575.975140229     A.U. after   10 cycles
            NFock= 10  Conv=0.86D-08     -V/T= 2.0031
 Calling FoFJK, ICntrl=      2127 FMM=F ISym2X=0 I1Cent= 0 IOpClX= 0 NMat=1 NMatS=1 NMatT=0.
 ***** Axes restored to original set *****
 -------------------------------------------------------------------
 Center     Atomic                   Forces (Hartrees/Bohr)
 Number     Number              X              Y              Z
 -------------------------------------------------------------------
      1       17          -0.000257033   -0.000045308   -0.000028894
      2        6          -0.000100180    0.000050831    0.000050679
      3        1           0.000117776    0.000441422   -0.000640443
      4        1          -0.001784686    0.000743787    0.000795374
      5        1           0.000175739   -0.000602155    0.000474379
      6        8           0.001878068   -0.000576742   -0.000641753
      7        1          -0.000029684   -0.000011835   -0.000009342
 -------------------------------------------------------------------
 Cartesian Forces:  Max     0.001878068 RMS     0.000688864

 GradGradGradGradGradGradGradGradGradGradGradGradGradGradGradGradGradGrad
 Berny optimization.
 Using GEDIIS/GDIIS optimizer.
 FormGI is forming the generalized inverse of G from B-inverse, IUseBI=4.
 Internal  Forces:  Max     0.002047671 RMS     0.000571828
 Search for a local minimum.
 Step number   6 out of a maximum of   28
 All quantities printed in internal units (Hartrees-Bohrs-Radians)
 Mixed Optimization -- En-DIIS/RFO-DIIS
 Swapping is turned off.
 Update second derivatives using D2CorX and points    2    1    3    4    5
                                                      6
 DE= -8.80D-05 DEPred=-7.22D-05 R= 1.22D+00
 TightC=F SS=  1.41D+00  RLast= 8.16D-02 DXNew= 4.2426D-01 2.4478D-01
 Trust test= 1.22D+00 RLast= 8.16D-02 DXMaxT set to 2.52D-01
 The second derivative matrix:
                          R1        R2        R3        R4        R5
           R1           0.15888
           R2          -0.01581   0.34494
           R3          -0.01393  -0.00707   0.03638
           R4          -0.01581   0.02714  -0.00707   0.34494
           R5           0.05379  -0.04055   0.05914  -0.04055   0.37622
           R6           0.00031  -0.00579   0.00074  -0.00579  -0.00613
           A1           0.00705  -0.00271   0.00756  -0.00271  -0.00889
           A2           0.00899  -0.00920   0.00853  -0.00920  -0.00277
           A3           0.00705  -0.00271   0.00756  -0.00271  -0.00888
           A4          -0.00522  -0.00667  -0.00860  -0.00667   0.02489
           A5          -0.00620   0.02624   0.00079   0.02624  -0.03953
           A6          -0.00522  -0.00667  -0.00860  -0.00667   0.02491
           A7           0.00268   0.01454  -0.00085   0.01454   0.00291
           A8          -0.00371   0.00314   0.00331   0.00314  -0.00562
           A9          -0.00002   0.00001  -0.00002   0.00001  -0.00000
           D1           0.00000  -0.00000   0.00000  -0.00000  -0.00000
           D2           0.00370  -0.00851   0.00137  -0.00851   0.00812
           D3          -0.00371   0.00852  -0.00137   0.00852  -0.00812
                          R6        A1        A2        A3        A4
           R6           0.52592
           A1           0.00187   0.15754
           A2          -0.00318  -0.00160   0.16215
           A3           0.00187  -0.00246  -0.00160   0.15754
           A4          -0.00247   0.00447   0.00226   0.00447   0.15618
           A5           0.00547  -0.00491  -0.00448  -0.00491   0.00005
           A6          -0.00247   0.00447   0.00226   0.00447  -0.00382
           A7           0.01927  -0.00470   0.01050  -0.00470   0.00318
           A8          -0.00314  -0.00204  -0.00840  -0.00204   0.00405
           A9           0.00000   0.00001  -0.00001   0.00001  -0.00001
           D1          -0.00000  -0.00000   0.00000  -0.00000   0.00000
           D2          -0.00077   0.00255   0.00167   0.00255   0.00045
           D3           0.00077  -0.00255  -0.00168  -0.00255  -0.00045
                          A5        A6        A7        A8        A9
           A5           0.17067
           A6           0.00005   0.15618
           A7          -0.00909   0.00318   0.13323
           A8           0.00094   0.00405  -0.01691   0.03771
           A9           0.00002  -0.00001  -0.00000  -0.00001   0.00619
           D1          -0.00000   0.00000   0.00000  -0.00000  -0.00000
           D2          -0.00600   0.00044   0.00113  -0.00056   0.00000
           D3           0.00601  -0.00044  -0.00113   0.00056  -0.00000
                          D1        D2        D3
           D1           0.00230
           D2           0.00000   0.00312
           D3          -0.00000  -0.00082   0.00312
 ITU=  1  1  1  0 -1  0
     Eigenvalues ---    0.00230   0.00615   0.01397   0.03263   0.08348
     Eigenvalues ---    0.09765   0.12146   0.14838   0.16000   0.16171
     Eigenvalues ---    0.16738   0.31780   0.32446   0.46232   0.52746
 En-DIIS/RFO-DIIS IScMMF=        0 using points:     6    5    4
 RFO step:  Lambda=-1.04787246D-05.
 DidBck=F Rises=F RFO-DIIS coefs:    1.64174   -1.42894    0.78719
 Iteration  1 RMS(Cart)=  0.00898445 RMS(Int)=  0.00004717
 Iteration  2 RMS(Cart)=  0.00003914 RMS(Int)=  0.00003138
 Iteration  3 RMS(Cart)=  0.00000000 RMS(Int)=  0.00003138
 Variable       Old X    -DE/DX   Delta X   Delta X   Delta X     New X
                                 (Linear)    (Quad)   (Total)
    R1        3.68059   0.00021  -0.00510  -0.00057  -0.00566   3.67492
    R2        2.09858  -0.00071  -0.00171   0.00008  -0.00163   2.09695
    R3        3.28530  -0.00003  -0.02483  -0.00173  -0.02656   3.25874
    R4        2.09858  -0.00071  -0.00171   0.00009  -0.00163   2.09696
    R5        1.98096   0.00205   0.00760   0.00456   0.01215   1.99312
    R6        1.82224   0.00002   0.00014   0.00014   0.00027   1.82251
[...]
      6          8           0        2.488686   -0.265118    0.000000
      7          1           0        2.226549   -1.193251   -0.000004
 ---------------------------------------------------------------------
 Rotational constants (GHZ):     19.6059778      2.9159883      2.5789683
 Standard basis: Aug-CC-pVDZ (5D, 7F)
 There are   115 symmetry adapted cartesian basis functions of A   symmetry.
 There are   109 symmetry adapted basis functions of A   symmetry.
   109 basis functions,   211 primitive gaussians,   115 cartesian basis functions
    18 alpha electrons       18 beta electrons
       nuclear repulsion energy        89.2793114330 Hartrees.
 NAtoms=    7 NActive=    7 NUniq=    7 SFac= 1.00D+00 NAtFMM=   60 NAOKFM=F Big=F
 Integral buffers will be    131072 words long.
 Raffenetti 2 integral format.
 Two-electron integral symmetry is turned on.
 One-electron integrals computed using PRISM.
 NBasis=   109 RedAO= T EigKep=  7.01D-04  NBF=   109
 NBsUse=   109 1.00D-06 EigRej= -1.00D+00 NBFU=   109
 Initial guess from the checkpoint file:  "/localscratch/rjackson.18103347.0/Gau-112682.chk"
 B after Tr=     0.000000    0.000000    0.000000
         Rot=    1.000000    0.000002    0.000000   -0.000008 Ang=   0.00 deg.
 Keep R1 ints in memory in canonical form, NReq=19024677.
 Requested convergence on RMS density matrix=1.00D-08 within 256 cycles.
 Requested convergence on MAX density matrix=1.00D-06.
 Requested convergence on             energy=1.00D-06.
 No special actions if energy rises.
 SCF Done:  E(RB3LYP) =  -575.975174275     A.U. after    7 cycles
            NFock=  7  Conv=0.43D-08     -V/T= 2.0031
 Calling FoFJK, ICntrl=      2127 FMM=F ISym2X=0 I1Cent= 0 IOpClX= 0 NMat=1 NMatS=1 NMatT=0.
 ***** Axes restored to original set *****
 -------------------------------------------------------------------
 Center     Atomic                   Forces (Hartrees/Bohr)
 Number     Number              X              Y              Z
 -------------------------------------------------------------------
      1       17           0.000000263    0.000000381    0.000000329
      2        6           0.000001065   -0.000000782   -0.000000665
      3        1          -0.000000855   -0.000000419    0.000001362
      4        1          -0.000000473   -0.000000220   -0.000000418
      5        1          -0.000000956    0.000001281   -0.000000472
      6        8           0.000000455   -0.000000280   -0.000000144
      7        1           0.000000500    0.000000038    0.000000009
 -------------------------------------------------------------------
 Cartesian Forces:  Max     0.000001362 RMS     0.000000657

 GradGradGradGradGradGradGradGradGradGradGradGradGradGradGradGradGradGrad
 Berny optimization.
 Using GEDIIS/GDIIS optimizer.
 FormGI is forming the generalized inverse of G from B-inverse, IUseBI=4.
 Internal  Forces:  Max     0.000001604 RMS     0.000000745
 Search for a local minimum.
 Step number  13 out of a maximum of   28
 All quantities printed in internal units (Hartrees-Bohrs-Radians)
 Mixed Optimization -- En-DIIS/RFO-DIIS
 Swapping is turned off.
 Update second derivatives using D2CorX and points    2    1    3    4    5
                                                      6    7    8    9   10
                                                     11   12   13
 DE= -3.28D-08 DEPred=-1.54D-08 R= 2.14D+00
 Trust test= 2.14D+00 RLast= 1.34D-03 DXMaxT set to 2.52D-01
 The second derivative matrix:
                          R1        R2        R3        R4        R5
           R1           0.10470
           R2          -0.01034   0.33444
           R3           0.00005  -0.00496   0.02921
           R4          -0.01025   0.01605  -0.00487   0.33383
           R5           0.01914  -0.01260   0.06421  -0.01225   0.28316
           R6           0.00256  -0.00561  -0.00043  -0.00558  -0.00479
           A1           0.02998   0.00051  -0.00036   0.00070  -0.00485
           A2          -0.00681   0.00406  -0.00368   0.00408  -0.00613
           A3           0.02994   0.00084  -0.00043   0.00090  -0.00517
           A4          -0.01964  -0.00683   0.00063  -0.00754   0.00685
           A5           0.00372   0.01116   0.00345   0.01083  -0.00329
           A6          -0.01934  -0.00841   0.00086  -0.00753   0.00775
           A7          -0.00505   0.01184   0.00334   0.01169   0.00465
           A8          -0.00384   0.00479   0.00249   0.00481  -0.00553
           A9          -0.00045   0.00291  -0.00043   0.00015  -0.00174
           D1          -0.00001  -0.00016   0.00002  -0.00008   0.00010
           D2           0.00013  -0.00991   0.00267  -0.01000   0.00499
           D3          -0.00018   0.01014  -0.00268   0.01008  -0.00513
                          R6        A1        A2        A3        A4
           R6           0.52631
           A1          -0.00008   0.14537
           A2          -0.00284   0.00055   0.05288
           A3          -0.00004  -0.01479   0.00055   0.14501
           A4          -0.00187   0.01102   0.03768   0.01121   0.13788
           A5           0.00648  -0.00308   0.01076  -0.00282   0.00093
           A6          -0.00176   0.01149   0.03791   0.01130  -0.02415
           A7           0.01894   0.00118   0.00996   0.00120   0.00137
           A8          -0.00360  -0.00239  -0.01069  -0.00237   0.00501
           A9          -0.00015  -0.00094  -0.00013  -0.00032   0.00349
           D1          -0.00002   0.00009  -0.00002   0.00011  -0.00014
           D2           0.00074   0.00427   0.00046   0.00427  -0.00056
           D3          -0.00072  -0.00437  -0.00044  -0.00436   0.00078
                          A5        A6        A7        A8        A9
           A5           0.15342
           A6           0.00003   0.13826
           A7          -0.01292   0.00095   0.13315
           A8           0.00098   0.00510  -0.01632   0.03836
           A9           0.00166  -0.00423   0.00073  -0.00010   0.01954
           D1          -0.00009   0.00010  -0.00001  -0.00003  -0.00040
           D2          -0.00458  -0.00087  -0.00186  -0.00157   0.00048
           D3           0.00470   0.00064   0.00188   0.00160   0.00028
                          D1        D2        D3
           D1           0.00229
           D2           0.00002   0.00516
           D3          -0.00003  -0.00287   0.00521
 ITU=  0  0  0  1  1  1  1  1  1  1  0 -1  0
     Eigenvalues ---    0.00230   0.00969   0.01458   0.01886   0.04021
     Eigenvalues ---    0.06218   0.09637   0.11535   0.13580   0.16147
     Eigenvalues ---    0.16217   0.29388   0.31810   0.36186   0.52769
 En-DIIS/RFO-DIIS IScMMF=        0 using points:    13   12   11   10    9
 RFO step:  Lambda=-2.49346830D-11.
 DidBck=F Rises=F RFO-DIIS coefs:    0.93905    0.08867   -0.04822    0.02097   -0.00048
 Iteration  1 RMS(Cart)=  0.00001962 RMS(Int)=  0.00000001
 Iteration  2 RMS(Cart)=  0.00000000 RMS(Int)=  0.00000001
 Variable       Old X    -DE/DX   Delta X   Delta X   Delta X     New X
                                 (Linear)    (Quad)   (Total)
    R1        3.67637  -0.00000   0.00001  -0.00000   0.00000   3.67637
    R2        2.09623   0.00000  -0.00000   0.00001   0.00000   2.09624
    R3        3.24413   0.00000   0.00002   0.00001   0.00003   3.24415
    R4        2.09623   0.00000  -0.00000   0.00001   0.00000   2.09624
    R5        1.99965   0.00000  -0.00001   0.00000  -0.00000   1.99965
    R6        1.82253  -0.00000   0.00000  -0.00000  -0.00000   1.82253
    A1        1.74496  -0.00000  -0.00000  -0.00000  -0.00000   1.74495
    A2        1.90169  -0.00000  -0.00000  -0.00000  -0.00000   1.90168
    A3        1.74496  -0.00000  -0.00000  -0.00000  -0.00001   1.74495
    A4        2.08822   0.00000   0.00000   0.00000   0.00001   2.08823
    A5        1.83510  -0.00000  -0.00000   0.00000  -0.00000   1.83510
    A6        2.08822   0.00000   0.00000   0.00000   0.00001   2.08822
    A7        1.78923   0.00000  -0.00000   0.00001   0.00001   1.78923
    A8        3.11084   0.00000   0.00000   0.00002   0.00003   3.11086
    A9        3.14158   0.00000   0.00001  -0.00000   0.00001   3.14159
    D1        0.00000  -0.00000   0.00000  -0.00000  -0.00000   0.00000
    D2        1.98310  -0.00000  -0.00000   0.00000  -0.00000   1.98310
    D3       -1.98308   0.00000   0.00000  -0.00001  -0.00000  -1.98308
         Item               Value     Threshold  Converged?
 Maximum Force            0.000002     0.000015     YES
 RMS     Force            0.000001     0.000010     YES
 Maximum Displacement     0.000058     0.000060     YES
 RMS     Displacement     0.000020     0.000040     YES
 Predicted change in Energy=-4.119025D-11
 Optimization completed.
    -- Stationary point found.
                           ----------------------------
                           !   Optimized Parameters   !
                           ! (Angstroms and Degrees)  !
 --------------------------                            --------------------------
 ! Name  Definition              Value          Derivative Info.                !
 --------------------------------------------------------------------------------
 ! R1    R(1,2)                  1.9455         -DE/DX =    0.0                 !
 ! R2    R(2,3)                  1.1093         -DE/DX =    0.0                 !
 ! R3    R(2,4)                  1.7167         -DE/DX =    0.0                 !
 ! R4    R(2,5)                  1.1093         -DE/DX =    0.0                 !
 ! R5    R(4,6)                  1.0582         -DE/DX =    0.0                 !
 ! R6    R(6,7)                  0.9644         -DE/DX =    0.0                 !
 ! A1    A(1,2,3)               99.9787         -DE/DX =    0.0                 !
 ! A2    A(1,2,4)              108.9586         -DE/DX =    0.0                 !
 ! A3    A(1,2,5)               99.9787         -DE/DX =    0.0                 !
 ! A4    A(3,2,4)              119.6463         -DE/DX =    0.0                 !
 ! A5    A(3,2,5)              105.1436         -DE/DX =    0.0                 !
 ! A6    A(4,2,5)              119.6461         -DE/DX =    0.0                 !
 ! A7    A(4,6,7)              102.5151         -DE/DX =    0.0                 !
 ! A8    L(2,4,6,7,-1)         178.2379         -DE/DX =    0.0                 !
 ! A9    L(2,4,6,7,-2)         179.9996         -DE/DX =    0.0                 !
 ! D1    D(1,2,6,7)              0.0002         -DE/DX =    0.0                 !
 ! D2    D(3,2,6,7)            113.6231         -DE/DX =    0.0                 !
 ! D3    D(5,2,6,7)           -113.6224         -DE/DX =    0.0                 !
 --------------------------------------------------------------------------------
 GradGradGradGradGradGradGradGradGradGradGradGradGradGradGradGradGradGrad

                          Input orientation:                          
 ---------------------------------------------------------------------
 Center     Atomic      Atomic             Coordinates (Angstroms)
 Number     Number       Type             X           Y           Z
 ---------------------------------------------------------------------
      1         17           0       -1.010545   -0.679580   -0.432897
      2          6           0        0.294184    0.407265    0.516435
      3          1           0       -0.021854    0.216957    1.562570
      4          1           0        1.870954   -0.044981    0.010088
      5          1           0       -0.089335    1.420362    0.277593
      6          8           0        2.829595   -0.345772   -0.321961
      7          1           0        2.621922   -1.038611   -0.959920
 ---------------------------------------------------------------------
                    Distance matrix (angstroms):
                    1          2          3          4          5
     1  Cl   0.000000
     2  C    1.945452   0.000000
     3  H    2.400663   1.109278   0.000000
     4  H    2.983620   1.716717   2.462018   0.000000
     5  H    2.400663   1.109278   1.761790   2.462016   0.000000
     6  O    3.856217   2.774577   3.463940   1.058170   3.463934
     7  H    3.688017   3.112642   3.863800   1.578660   3.863793
                    6          7
     6  O    0.000000
     7  H    0.964441   0.000000
 Stoichiometry    CH4ClO(1-)
 Framework group  C1[X(CH4ClO)]
 Deg. of freedom    15
 Full point group                 C1      NOp   1
 Largest Abelian subgroup         C1      NOp   1
 Largest concise Abelian subgroup C1      NOp   1
                         Standard orientation:                         
 ---------------------------------------------------------------------
 Center     Atomic      Atomic             Coordinates (Angstroms)
 Number     Number       Type             X           Y           Z
 ---------------------------------------------------------------------
      1         17           0       -1.366338   -0.361006    0.000000
      2          6           0        0.020855    1.002986    0.000000
      3          1           0       -0.295149    1.598526    0.880892
      4          1           0        1.556875    0.236331    0.000003
      5          1           0       -0.295144    1.598520   -0.880898
      6          8           0        2.488686   -0.265118    0.000000
      7          1           0        2.226549   -1.193251   -0.000004
 ---------------------------------------------------------------------
 Rotational constants (GHZ):     19.6059778      2.9159883      2.5789683

 **********************************************************************

            Population analysis using the SCF density.

 **********************************************************************

 Orbital symmetries:
       Occupied  (A) (A) (A) (A) (A) (A) (A) (A) (A) (A) (A) (A)
                 (A) (A) (A) (A) (A) (A)
       Virtual   (A) (A) (A) (A) (A) (A) (A) (A) (A) (A) (A) (A)
                 (A) (A) (A) (A) (A) (A) (A) (A) (A) (A) (A) (A)
                 (A) (A) (A) (A) (A) (A) (A) (A) (A) (A) (A) (A)
                 (A) (A) (A) (A) (A) (A) (A) (A) (A) (A) (A) (A)
                 (A) (A) (A) (A) (A) (A) (A) (A) (A) (A) (A) (A)
                 (A) (A) (A) (A) (A) (A) (A) (A) (A) (A) (A) (A)
                 (A) (A) (A) (A) (A) (A) (A) (A) (A) (A) (A) (A)
                 (A) (A) (A) (A) (A) (A) (A)
 The electronic state is 1-A.
 Alpha  occ. eigenvalues -- -101.33431 -18.93106 -10.00127  -9.25023  -7.01111
 Alpha  occ. eigenvalues --   -7.00421  -7.00397  -0.78071  -0.61730  -0.43665
 Alpha  occ. eigenvalues --   -0.29668  -0.21023  -0.19346  -0.17624  -0.12765
 Alpha  occ. eigenvalues --   -0.10441  -0.10178  -0.01406
 Alpha virt. eigenvalues --    0.11704   0.12979   0.14061   0.14591   0.17027
 Alpha virt. eigenvalues --    0.21757   0.22133   0.23391   0.23450   0.23952
 Alpha virt. eigenvalues --    0.24549   0.26775   0.28393   0.29666   0.30469
 Alpha virt. eigenvalues --    0.34171   0.34586   0.35633   0.39555   0.42769
 Alpha virt. eigenvalues --    0.43070   0.44624   0.46218   0.46841   0.51582
 Alpha virt. eigenvalues --    0.52036   0.53856   0.53897   0.56011   0.59297
 Alpha virt. eigenvalues --    0.59566   0.62846   0.63316   0.66234   0.67629
 Alpha virt. eigenvalues --    0.69267   0.69405   0.73392   0.73633   0.77043
 Alpha virt. eigenvalues --    0.80169   0.82335   0.86606   0.93612   0.96821
 Alpha virt. eigenvalues --    0.98333   1.03315   1.04999   1.05935   1.08477
 Alpha virt. eigenvalues --    1.12484   1.16315   1.20042   1.21442   1.33108
 Alpha virt. eigenvalues --    1.34362   1.34397   1.36771   1.37730   1.44515
 Alpha virt. eigenvalues --    1.46151   1.46474   1.49116   1.53785   1.60570
 Alpha virt. eigenvalues --    1.64661   1.70797   1.80858   1.88693   1.94496
 Alpha virt. eigenvalues --    1.96885   1.97598   2.05631   2.07847   2.08364
 Alpha virt. eigenvalues --    2.11181   2.23760   2.25682   2.38947   2.39762
 Alpha virt. eigenvalues --    2.43802   2.61992   2.67140   2.75101   2.76894
 Alpha virt. eigenvalues --    2.93819   3.51310   3.55505   3.58748   3.92663
 Alpha virt. eigenvalues --    4.12805
          Condensed to atoms (all electrons):
               1          2          3          4          5          6
     1  Cl  17.513270   0.030416  -0.089751  -0.017166  -0.089751   0.029175
     2  C    0.030416   5.577053   0.253160   0.076184   0.253161  -0.263510
     3  H   -0.089751   0.253160   1.434431  -0.063616  -0.252041   0.009268
     4  H   -0.017166   0.076184  -0.063616   0.608897  -0.063616   0.201585
     5  H   -0.089751   0.253161  -0.252041  -0.063616   1.434430   0.009268
     6  O    0.029175  -0.263510   0.009268   0.201585   0.009268   8.075095
     7  H   -0.013566   0.051417  -0.006519  -0.089244  -0.006519   0.328869
               7
     1  Cl  -0.013566
     2  C    0.051417
     3  H   -0.006519
     4  H   -0.089244
     5  H   -0.006519
     6  O    0.328869
     7  H    0.782413
 Mulliken charges:
               1
     1  Cl  -0.362627
     2  C    0.022119
     3  H   -0.284932
     4  H    0.346975
     5  H   -0.284933
     6  O   -0.389750
     7  H   -0.046852
 Sum of Mulliken charges =  -1.00000
 Mulliken charges with hydrogens summed into heavy atoms:
               1
     1  Cl  -0.362627
     2  C   -0.547746
     6  O   -0.089627
 Electronic spatial extent (au):  <R**2>=            463.2598
 Charge=             -1.0000 electrons
 Dipole moment (field-independent basis, Debye):
    X=             -2.2495    Y=             -0.6999    Z=             -0.0000  Tot=              2.3558
 Quadrupole moment (field-independent basis, Debye-Ang):
   XX=            -52.3837   YY=            -30.7553   ZZ=            -31.7843
   XY=             -1.7575   XZ=             -0.0000   YZ=              0.0000
 Traceless Quadrupole moment (field-independent basis, Debye-Ang):
   XX=            -14.0760   YY=              7.5525   ZZ=              6.5235
   XY=             -1.7575   XZ=             -0.0000   YZ=              0.0000
 Octapole moment (field-independent basis, Debye-Ang**2):
  XXX=            -36.6613  YYY=            -11.4027  ZZZ=             -0.0000  XYY=              5.9253
  XXY=             -2.4181  XXZ=             -0.0000  XZZ=             -1.1181  YZZ=             -1.0446
  YYZ=             -0.0000  XYZ=              0.0000
 Hexadecapole moment (field-independent basis, Debye-Ang**3):
 XXXX=           -641.5225 YYYY=           -133.6697 ZZZZ=            -51.7981 XXXY=              1.7780
 XXXZ=             -0.0001 YYYX=             -3.4540 YYYZ=              0.0000 ZZZX=             -0.0000
 ZZZY=              0.0000 XXYY=            -94.1145 XXZZ=            -97.7747 YYZZ=            -30.7362
 XXYZ=              0.0001 YYXZ=             -0.0000 ZZXY=             -0.4888
 N-N= 8.927931143304D+01 E-N=-1.552261381213D+03  KE= 5.742047281455D+02
 1\1\GINC-CDR674\FOpt\RB3LYP\Aug-CC-pVDZ\C1H4Cl1O1(1-)\RJACKSON\12-Mar-
 2019\0\\# b3lyp/aug-cc-PVDZ opt(tight) integral(grid=superfine) scf(ma
 xcyc=256)\\OH-chloromethane_product\\-1,1\Cl,-1.0105452084,-0.67958027
 34,-0.4328971594\C,0.294184012,0.407264855,0.5164346603\H,-0.021853530
 7,0.2169566571,1.5625704966\H,1.8709541375,-0.0449814321,0.0100882256\
 H,-0.0893346674,1.4203617254,0.2775931975\O,2.829594717,-0.345771671,-
 0.3219608691\H,2.6219215401,-1.038610861,-0.9599195515\\Version=EM64L-
 G09RevE.01\State=1-A\HF=-575.9751743\RMSD=4.287e-09\RMSF=6.567e-07\Dip
 ole=-0.8668985,-0.2608553,-0.1987716\Quadrupole=-10.2373796,5.0525019,
 5.1848777,-2.0215184,-1.100827,0.2957632\PG=C01 [X(C1H4Cl1O1)]\\@


 IT IS A QUALITY OF REVOLUTIONS NOT TO GO BY OLD LINES OR OLD LAWS,
 BUT TO BREAK UP BOTH, AND MAKE NEW ONES.
                                              -- A. LINCOLN (1848)
 Job cpu time:       0 days  0 hours 20 minutes 42.8 seconds.
 File lengths (MBytes):  RWF=      8 Int=      0 D2E=      0 Chk=      2 Scr=      1
 Normal termination of Gaussian 09 at Tue Mar 12 04:31:55 2019.
